  ABINIT 9.6.2
  
-instrng: 158 lines of input have been read from file BTO_phonons.abi
 

.Version 9.6.2 of ABINIT 
.(MPI version, prepared for a x86_64_linux_intel19.1 computer) 

.Copyright (C) 1998-2021 ABINIT group . 
 ABINIT comes with ABSOLUTELY NO WARRANTY.
 It is free software, and you are welcome to redistribute it
 under certain conditions (GNU General Public License,
 see ~abinit/COPYING or http://www.gnu.org/copyleft/gpl.txt).

 ABINIT is a project of the Universite Catholique de Louvain,
 Corning Inc. and other collaborators, see ~abinit/doc/developers/contributors.txt .
 Please read https://docs.abinit.org/theory/acknowledgments for suggested
 acknowledgments of the ABINIT effort.
 For more information, see https://www.abinit.org .

.Starting date : Tue  9 Aug 2022.
- ( at 09h57 )
  
 
 ++++++++++++++++++++++++++++++++++++++++++++++++++++++++++++++++++++++++++++++
 
 === Build Information === 
  Version       : 9.6.2
  Build target  : x86_64_linux_intel19.1
  Build date    : 20220807
 
 === Compiler Suite === 
  C compiler       : intel19.1
  C++ compiler     : gnu19.1
  Fortran compiler : intel19.1
  CFLAGS           : -g -O2
  CXXFLAGS         : -g -O2 -mtune=native -march=native
  FCFLAGS          : -g -extend-source -nofpscomp  -qopenmp   -I/opt/apps/intel19/impi19 ...
  FC_LDFLAGS       :   -static-intel -static-libgcc
 
 === Optimizations === 
  Debug level        : basic
  Optimization level : standard
  Architecture       : amd_epyc
 
 === Multicore === 
  Parallel build : 
  Parallel I/O   : 
  openMP support : yes
  GPU support    : 
 
 === Connectors / Fallbacks === 
  LINALG flavor  : mkl
  FFT flavor     : dfti
  HDF5           : yes
  NetCDF         : yes
  NetCDF Fortran : yes
  LibXC          : yes
  Wannier90      : no
 
 === Experimental features === 
  Exports             : 
  GW double-precision : 
 
 ++++++++++++++++++++++++++++++++++++++++++++++++++++++++++++++++++++++++++++++
 

 ++++++++++++++++++++++++++++++++++++++++++++++++++++++++++++++++++++++++++++++
 Default optimizations:
   -O3


 Optimizations for 43_ptgroups:
   -O0


 ++++++++++++++++++++++++++++++++++++++++++++++++++++++++++++++++++++++++++++++


 ++++++++++++++++++++++++++++++++++++++++++++++++++++++++++++++++++++++++++++++
 CPP options activated during the build:

                  CC_INTEL                   CXX_GNU                  FC_INTEL
 
                 HAVE_DFTI HAVE_FC_ALLOCATABLE_DT...             HAVE_FC_ASYNC
 
  HAVE_FC_COMMAND_ARGUMENT      HAVE_FC_COMMAND_LINE        HAVE_FC_CONTIGUOUS
 
           HAVE_FC_CPUTIME              HAVE_FC_EXIT             HAVE_FC_FLUSH
 
             HAVE_FC_GAMMA   HAVE_FC_IEEE_ARITHMETIC   HAVE_FC_IEEE_EXCEPTIONS
 
             HAVE_FC_IOMSG     HAVE_FC_ISO_C_BINDING  HAVE_FC_ISO_FORTRAN_2008
 
        HAVE_FC_LONG_LINES        HAVE_FC_MOVE_ALLOC  HAVE_FC_ON_THE_FLY_SHAPE
 
           HAVE_FC_PRIVATE         HAVE_FC_PROTECTED           HAVE_FC_SHIFTLR
 
         HAVE_FC_STREAM_IO                 HAVE_HDF5             HAVE_HDF5_MPI
 
        HAVE_LIBPAW_ABINIT      HAVE_LIBTETRA_ABINIT                HAVE_LIBXC
 
         HAVE_LINALG_AXPBY        HAVE_LINALG_GEMM3M         HAVE_LINALG_GEMMT
 
  HAVE_LINALG_MKL_IMATCOPY   HAVE_LINALG_MKL_OMATADD  HAVE_LINALG_MKL_OMATCOPY
 
   HAVE_LINALG_MKL_THREADS     HAVE_LINALG_SCALAPACK                  HAVE_MPI
 
                 HAVE_MPI2       HAVE_MPI_IALLGATHER       HAVE_MPI_IALLREDUCE
 
        HAVE_MPI_IALLTOALL       HAVE_MPI_IALLTOALLV           HAVE_MPI_IBCAST
 
         HAVE_MPI_IGATHERV        HAVE_MPI_INTEGER16               HAVE_MPI_IO
 
 HAVE_MPI_TYPE_CREATE_S...               HAVE_NETCDF       HAVE_NETCDF_FORTRAN
 
   HAVE_NETCDF_FORTRAN_MPI           HAVE_NETCDF_MPI         HAVE_OMP_COLLAPSE
 
               HAVE_OPENMP             HAVE_OS_LINUX         HAVE_TIMER_ABINIT
 
 ++++++++++++++++++++++++++++++++++++++++++++++++++++++++++++++++++++++++++++++

- input  file    -> BTO_phonons.abi
- output file    -> BTO_phonons.abo
- root for input  files -> BTO_phononsi
- root for output files -> BTO_phononso
 
 Netcdf library supports MPI-IO
-instrng: 158 lines of input have been read from file BTO_phonons.abi
 
 For atom type 1, psp file is /work/08697/sohmapte/ls6/pseudopotentials/JTH-LDA-atomicdata-1.1/ATOMICDATA/Ba.LDA_PW-JTH.xml
 For atom type 2, psp file is /work/08697/sohmapte/ls6/pseudopotentials/JTH-LDA-atomicdata-1.1/ATOMICDATA/Ti.LDA_PW-JTH.xml
 For atom type 3, psp file is /work/08697/sohmapte/ls6/pseudopotentials/JTH-LDA-atomicdata-1.1/ATOMICDATA/O.LDA_PW-JTH.xml
- inpspheads : Reading pseudopotential header in XML form from 
-   /work/08697/sohmapte/ls6/pseudopotentials/JTH-LDA-atomicdata-1.1/ATOMICDATA/Ba.LDA_PW-JTH.xml
- inpspheads : Reading pseudopotential header in XML form from 
-   /work/08697/sohmapte/ls6/pseudopotentials/JTH-LDA-atomicdata-1.1/ATOMICDATA/Ti.LDA_PW-JTH.xml
- inpspheads : Reading pseudopotential header in XML form from 
-   /work/08697/sohmapte/ls6/pseudopotentials/JTH-LDA-atomicdata-1.1/ATOMICDATA/O.LDA_PW-JTH.xml
 
 inpspheads: deduce mpsang = 3, n1xccc = 1.

======================================================= 
 invars1m : enter jdtset= 1
 
 symlatt: the Bravais lattice is hR (rhombohedral)
  xred   is defined in input file
 ingeo: takes atomic coordinates from input array xred
 
--- !COMMENT
src_file: m_ingeo.F90
src_line: 900
message: |
    The tolerance on symmetries =   1.000E-05 is bigger than 1.0e-8.
    In order to avoid spurious effects, the atomic coordinates have been
    symmetrized before storing them in the dataset internal variable.
    So, do not be surprised by the fact that your input variables (xcart, xred, ...)
    do not correspond exactly to the ones echoed by ABINIT, the latter being used to do the calculations.
    This is not a problem per se.
    Still, in order to avoid this symmetrization (e.g. for specific debugging/development), decrease tolsym to 1.0e-8 or lower,
    or (much preferred) use input primitive vectors that are accurate to better than 1.0e-8.
    This message will only be printed once, even if there are other datasets where tolsym is bigger than 1.0e-8.
...
 
 
 symlatt: the Bravais lattice is hR (rhombohedral)
 
 symlatt: the Bravais lattice is hR (rhombohedral)
 symspgr: spgroup= 160  R3 m   (=C3v^5)
 symspgr: optical characteristics = uniaxial
 Optical axis (in reduced coordinates, real space ) :   1   1   1

======================================================= 
 invars1m : enter jdtset= 2
 
 symlatt: the Bravais lattice is hR (rhombohedral)
  xred   is defined in input file
 ingeo: takes atomic coordinates from input array xred
 
 symlatt: the Bravais lattice is hR (rhombohedral)
 
 symlatt: the Bravais lattice is hR (rhombohedral)
 symspgr: spgroup= 160  R3 m   (=C3v^5)
 symspgr: optical characteristics = uniaxial
 Optical axis (in reduced coordinates, real space ) :   1   1   1

======================================================= 
 invars1m : enter jdtset= 3
 
 symlatt: the Bravais lattice is hR (rhombohedral)
  xred   is defined in input file
 ingeo: takes atomic coordinates from input array xred
 
 symlatt: the Bravais lattice is hR (rhombohedral)
 
 symlatt: the Bravais lattice is hR (rhombohedral)
 symspgr: spgroup= 160  R3 m   (=C3v^5)
 symspgr: optical characteristics = uniaxial
 Optical axis (in reduced coordinates, real space ) :   1   1   1

======================================================= 
 invars1m : enter jdtset= 4
 
 symlatt: the Bravais lattice is hR (rhombohedral)
  xred   is defined in input file
 ingeo: takes atomic coordinates from input array xred
 
 symlatt: the Bravais lattice is hR (rhombohedral)
 
 symlatt: the Bravais lattice is hR (rhombohedral)
 symspgr: spgroup= 160  R3 m   (=C3v^5)
 symspgr: optical characteristics = uniaxial
 Optical axis (in reduced coordinates, real space ) :   1   1   1
 
--- !WARNING
src_file: m_mpinfo.F90
src_line: 2501
message: |
    nkpt*nsppol (60) is not a multiple of nproc_spkpt (32)
    The k-point parallelisation is inefficient. (Ignore this warning if this is not a GS run)
...
 
 
--- !WARNING
src_file: m_mpi_setup.F90
src_line: 732
message: |
    Your number of spins*k-points (=60) will not distribute correctly
    with the current number of processors (=32).
    You will leave some empty.
    YOU ARE STRONGLY ADVISED TO ACTIVATE AUTOMATIC PARALLELIZATION!
    PUT "AUTOPARAL=1" IN THE INPUT FILE.
...
 
getng is called for the coarse grid:
 For input ecut=  3.858750E+01 best grid ngfft=      45      45      45
       max ecut=  4.266540E+01
 
 ==== FFT mesh ====
  FFT mesh divisions ........................    45   45   45
  Augmented FFT divisions ...................    45   45   45
  FFT algorithm .............................   512
  FFT cache size ............................    16
 getmpw: optimal value of mpw= 4831
getng is called for the fine grid:
 Using supplied coarse mesh as initial guess.
 For input ecut=  6.615000E+01 best grid ngfft=      60      60      60
       max ecut=  7.933648E+01
 
 ==== FFT mesh ====
  FFT mesh divisions ........................    60   60   60
  Augmented FFT divisions ...................    61   61   60
  FFT algorithm .............................   512
  FFT cache size ............................    16
getng is called for the coarse grid:
 For input ecut=  3.858750E+01 best grid ngfft=      45      45      45
       max ecut=  4.266540E+01
 
 ==== FFT mesh ====
  FFT mesh divisions ........................    45   45   45
  Augmented FFT divisions ...................    45   45   45
  FFT algorithm .............................   512
  FFT cache size ............................    16
 getmpw: optimal value of mpw= 4831
getng is called for the fine grid:
 Using supplied coarse mesh as initial guess.
 For input ecut=  6.615000E+01 best grid ngfft=      60      60      60
       max ecut=  7.933648E+01
 
 ==== FFT mesh ====
  FFT mesh divisions ........................    60   60   60
  Augmented FFT divisions ...................    61   61   60
  FFT algorithm .............................   512
  FFT cache size ............................    16
getng is called for the coarse grid:
 For input ecut=  3.858750E+01 best grid ngfft=      45      45      45
       max ecut=  4.266540E+01
 
 ==== FFT mesh ====
  FFT mesh divisions ........................    45   45   45
  Augmented FFT divisions ...................    45   45   45
  FFT algorithm .............................   512
  FFT cache size ............................    16
 getmpw: optimal value of mpw= 4831
 getmpw: optimal value of mpw= 4831
getng is called for the fine grid:
 Using supplied coarse mesh as initial guess.
 For input ecut=  6.615000E+01 best grid ngfft=      60      60      60
       max ecut=  7.933648E+01
 
 ==== FFT mesh ====
  FFT mesh divisions ........................    60   60   60
  Augmented FFT divisions ...................    61   61   60
  FFT algorithm .............................   512
  FFT cache size ............................    16
getng is called for the coarse grid:
 For input ecut=  3.858750E+01 best grid ngfft=      45      45      45
       max ecut=  4.266540E+01
 
 ==== FFT mesh ====
  FFT mesh divisions ........................    45   45   45
  Augmented FFT divisions ...................    45   45   45
  FFT algorithm .............................   512
  FFT cache size ............................    16
 getmpw: optimal value of mpw= 4831
 getmpw: optimal value of mpw= 4831
getng is called for the fine grid:
 Using supplied coarse mesh as initial guess.
 For input ecut=  6.615000E+01 best grid ngfft=      60      60      60
       max ecut=  7.933648E+01
 
 ==== FFT mesh ====
  FFT mesh divisions ........................    60   60   60
  Augmented FFT divisions ...................    61   61   60
  FFT algorithm .............................   512
  FFT cache size ............................    16
 
 DATASET    1 : space group R3 m (#160); Bravais hR (rhombohedral)
 
 getdim_nloc : deduce lmnmax  =  18, lnmax  =   6,
                      lmnmaxso=  18, lnmaxso=   6.
memory: analysis of memory needs
================================================================================
 Values of the parameters that define the memory need for DATASET  1.
     intxc =       0    ionmov =       0      iscf =      17    lmnmax =      18
     lnmax =       6     mgfft =      45  mpssoang =       3    mqgrid =    3001
     natom =       5  nloc_mem =       2    nspden =       1   nspinor =       1
    nsppol =       1      nsym =       6    n1xccc =       1    ntypat =       3
    occopt =       1   xclevel =       1
-    mband =          25        mffmem =           1         mkmem =           2
       mpw =        4831          nfft =       91125          nkpt =          60
Pmy_natom=         1
 PAW method is used; the additional fine FFT grid is defined by:
   mgfftf=        60    nfftf =    216000
================================================================================
P This job should need less than                      63.659 Mbytes of memory.
  Rough estimation (10% accuracy) of disk space for files :
_ WF disk file :    110.575 Mbytes ; DEN or POT disk file :      1.650 Mbytes.
================================================================================
 
 Biggest array : pawfgrtab%gylm(gr), with     13.8302 MBytes.
 memana : allocated an array of     13.830 Mbytes, for testing purposes.
 memana: allocated      63.659Mbytes, for testing purposes. 
 The job will continue.
 
 DATASET    2 : space group R3 m (#160); Bravais hR (rhombohedral)
 
 getdim_nloc : deduce lmnmax  =  18, lnmax  =   6,
                      lmnmaxso=  18, lnmaxso=   6.
memory: analysis of memory needs
================================================================================
 Values of the parameters that define the memory need for DATASET  2.
     intxc =       0    ionmov =       0      iscf =      -2    lmnmax =      18
     lnmax =       6     mgfft =      45  mpssoang =       3    mqgrid =    3001
     natom =       5  nloc_mem =       2    nspden =       1   nspinor =       1
    nsppol =       1      nsym =       6    n1xccc =       1    ntypat =       3
    occopt =       1   xclevel =       1
-    mband =          20        mffmem =           1         mkmem =           8
       mpw =        4831          nfft =       91125          nkpt =         256
Pmy_natom=         1
 PAW method is used; the additional fine FFT grid is defined by:
   mgfftf=        60    nfftf =    216000
================================================================================
P This job should need less than                      62.107 Mbytes of memory.
  Rough estimation (10% accuracy) of disk space for files :
_ WF disk file :    377.424 Mbytes ; DEN or POT disk file :      1.650 Mbytes.
================================================================================
 
 Biggest array : pawfgrtab%gylm(gr), with     13.8302 MBytes.
 memana : allocated an array of     13.830 Mbytes, for testing purposes.
 memana: allocated      62.107Mbytes, for testing purposes. 
 The job will continue.
 
 DATASET    3 : space group R3 m (#160); Bravais hR (rhombohedral)
 
 getdim_nloc : deduce lmnmax  =  18, lnmax  =   6,
                      lmnmaxso=  18, lnmaxso=   6.
 memorf : analysis of memory needs
================================================================================
 Values of the parameters that define the memory need for DATASET  3 (RF).
     intxc =       0      iscf =       7    lmnmax =      18     lnmax =       6
     mgfft =      45  mpssoang =       3    mqgrid =    3001     natom =       5
  nloc_mem =       2    nspden =       1   nspinor =       1    nsppol =       1
      nsym =       6    n1xccc =       1    ntypat =       3    occopt =       1
   xclevel =       1
-    mband =          20        mffmem =           1         mkmem =           8
-   mkqmem =           8        mk1mem =           8           mpw =        4831
      nfft =       91125          nkpt =         256
Pmy_natom=         1
================================================================================
P This job should need less than                      83.598 Mbytes of memory.
  Rough estimation (10% accuracy) of disk space for files :
_ WF disk file :    377.424 Mbytes ; DEN or POT disk file :      0.697 Mbytes.
================================================================================
 
 Biggest array : cg(disk), with     11.7964 MBytes.
 memana : allocated an array of     11.796 Mbytes, for testing purposes.
 memana: allocated      83.598Mbytes, for testing purposes. 
 The job will continue.
 
 DATASET    4 : space group R3 m (#160); Bravais hR (rhombohedral)
 
 getdim_nloc : deduce lmnmax  =  18, lnmax  =   6,
                      lmnmaxso=  18, lnmaxso=   6.
 memorf : analysis of memory needs
================================================================================
 Values of the parameters that define the memory need for DATASET  4 (RF).
     intxc =       0      iscf =       7    lmnmax =      18     lnmax =       6
     mgfft =      45  mpssoang =       3    mqgrid =    3001     natom =       5
  nloc_mem =       2    nspden =       1   nspinor =       1    nsppol =       1
      nsym =       6    n1xccc =       1    ntypat =       3    occopt =       1
   xclevel =       1
-    mband =          20        mffmem =           1         mkmem =           8
-   mkqmem =           8        mk1mem =           8           mpw =        4831
      nfft =       91125          nkpt =         256
Pmy_natom=         1
================================================================================
P This job should need less than                     123.846 Mbytes of memory.
  Rough estimation (10% accuracy) of disk space for files :
_ WF disk file :    377.424 Mbytes ; DEN or POT disk file :      0.697 Mbytes.
================================================================================
 
 Biggest array : cg(disk), with     11.7964 MBytes.
 memana : allocated an array of     11.796 Mbytes, for testing purposes.
 memana: allocated     123.846Mbytes, for testing purposes. 
 The job will continue.
--------------------------------------------------------------------------------
------------- Echo of variables that govern the present computation ------------
--------------------------------------------------------------------------------
-
- outvars: echo of selected default values                                      
-   iomode0 =  0 , fftalg0 =512 , wfoptalg0 = 10
-
- outvars: echo of global parameters not present in the input file              
-  max_nthreads =    1
-
 -outvars: echo values of preprocessed input variables --------
 
 These variables are accessible in NetCDF format (BTO_phononso_OUT.nc)

            acell      7.4820504430E+00  7.4820504430E+00  7.4820504430E+00 Bohr
              amu      1.37327000E+02  4.78800000E+01  1.59994000E+01
          dilatmx      1.05000000E+00
             ecut      3.50000000E+01 Hartree
           ecutsm      5.00000000E-01 Hartree
-          fftalg         512
           getddk1          0
           getddk2          0
           getddk3          0
           getddk4          3
           getden1          0
           getden2          1
           getden3          0
           getden4          0
           getwfk1          0
           getwfk2          1
           getwfk3          2
           getwfk4          2
             iscf1         17
             iscf2         -2
             iscf3          7
             iscf4          7
              ixc       -1012
           jdtset        1    2    3    4
              kpt1     6.25000000E-02  6.25000000E-02  6.25000000E-02
                       1.87500000E-01  6.25000000E-02  6.25000000E-02
                       3.12500000E-01  6.25000000E-02  6.25000000E-02
                       4.37500000E-01  6.25000000E-02  6.25000000E-02
                      -4.37500000E-01  6.25000000E-02  6.25000000E-02
                      -3.12500000E-01  6.25000000E-02  6.25000000E-02
                      -1.87500000E-01  6.25000000E-02  6.25000000E-02
                      -6.25000000E-02  6.25000000E-02  6.25000000E-02
                       1.87500000E-01  1.87500000E-01  6.25000000E-02
                       3.12500000E-01  1.87500000E-01  6.25000000E-02
                       4.37500000E-01  1.87500000E-01  6.25000000E-02
                      -4.37500000E-01  1.87500000E-01  6.25000000E-02
                      -3.12500000E-01  1.87500000E-01  6.25000000E-02
                      -1.87500000E-01  1.87500000E-01  6.25000000E-02
                      -6.25000000E-02  1.87500000E-01  6.25000000E-02
                       3.12500000E-01  3.12500000E-01  6.25000000E-02
                       4.37500000E-01  3.12500000E-01  6.25000000E-02
                      -4.37500000E-01  3.12500000E-01  6.25000000E-02
                      -3.12500000E-01  3.12500000E-01  6.25000000E-02
                      -1.87500000E-01  3.12500000E-01  6.25000000E-02
                      -6.25000000E-02  3.12500000E-01  6.25000000E-02
                       4.37500000E-01  4.37500000E-01  6.25000000E-02
                      -4.37500000E-01  4.37500000E-01  6.25000000E-02
                      -3.12500000E-01  4.37500000E-01  6.25000000E-02
                      -1.87500000E-01  4.37500000E-01  6.25000000E-02
                      -6.25000000E-02  4.37500000E-01  6.25000000E-02
                      -4.37500000E-01 -4.37500000E-01  6.25000000E-02
                      -3.12500000E-01 -4.37500000E-01  6.25000000E-02
                      -1.87500000E-01 -4.37500000E-01  6.25000000E-02
                      -3.12500000E-01 -3.12500000E-01  6.25000000E-02
                      -1.87500000E-01 -3.12500000E-01  6.25000000E-02
                      -1.87500000E-01 -1.87500000E-01  6.25000000E-02
                       1.87500000E-01  1.87500000E-01  1.87500000E-01
                       3.12500000E-01  1.87500000E-01  1.87500000E-01
                       4.37500000E-01  1.87500000E-01  1.87500000E-01
                      -4.37500000E-01  1.87500000E-01  1.87500000E-01
                      -3.12500000E-01  1.87500000E-01  1.87500000E-01
                      -1.87500000E-01  1.87500000E-01  1.87500000E-01
                       3.12500000E-01  3.12500000E-01  1.87500000E-01
                       4.37500000E-01  3.12500000E-01  1.87500000E-01
                      -4.37500000E-01  3.12500000E-01  1.87500000E-01
                      -3.12500000E-01  3.12500000E-01  1.87500000E-01
                      -1.87500000E-01  3.12500000E-01  1.87500000E-01
                       4.37500000E-01  4.37500000E-01  1.87500000E-01
                      -4.37500000E-01  4.37500000E-01  1.87500000E-01
                      -3.12500000E-01  4.37500000E-01  1.87500000E-01
                      -1.87500000E-01  4.37500000E-01  1.87500000E-01
                      -4.37500000E-01 -4.37500000E-01  1.87500000E-01
                      -3.12500000E-01 -4.37500000E-01  1.87500000E-01
                      -3.12500000E-01 -3.12500000E-01  1.87500000E-01
              kpt2     6.25000000E-02  6.25000000E-02  6.25000000E-02
                       1.87500000E-01  6.25000000E-02  6.25000000E-02
                       3.12500000E-01  6.25000000E-02  6.25000000E-02
                       4.37500000E-01  6.25000000E-02  6.25000000E-02
                      -4.37500000E-01  6.25000000E-02  6.25000000E-02
                      -3.12500000E-01  6.25000000E-02  6.25000000E-02
                      -1.87500000E-01  6.25000000E-02  6.25000000E-02
                      -6.25000000E-02  6.25000000E-02  6.25000000E-02
                       6.25000000E-02  1.87500000E-01  6.25000000E-02
                       1.87500000E-01  1.87500000E-01  6.25000000E-02
                       3.12500000E-01  1.87500000E-01  6.25000000E-02
                       4.37500000E-01  1.87500000E-01  6.25000000E-02
                      -4.37500000E-01  1.87500000E-01  6.25000000E-02
                      -3.12500000E-01  1.87500000E-01  6.25000000E-02
                      -1.87500000E-01  1.87500000E-01  6.25000000E-02
                      -6.25000000E-02  1.87500000E-01  6.25000000E-02
                       6.25000000E-02  3.12500000E-01  6.25000000E-02
                       1.87500000E-01  3.12500000E-01  6.25000000E-02
                       3.12500000E-01  3.12500000E-01  6.25000000E-02
                       4.37500000E-01  3.12500000E-01  6.25000000E-02
                      -4.37500000E-01  3.12500000E-01  6.25000000E-02
                      -3.12500000E-01  3.12500000E-01  6.25000000E-02
                      -1.87500000E-01  3.12500000E-01  6.25000000E-02
                      -6.25000000E-02  3.12500000E-01  6.25000000E-02
                       6.25000000E-02  4.37500000E-01  6.25000000E-02
                       1.87500000E-01  4.37500000E-01  6.25000000E-02
                       3.12500000E-01  4.37500000E-01  6.25000000E-02
                       4.37500000E-01  4.37500000E-01  6.25000000E-02
                      -4.37500000E-01  4.37500000E-01  6.25000000E-02
                      -3.12500000E-01  4.37500000E-01  6.25000000E-02
                      -1.87500000E-01  4.37500000E-01  6.25000000E-02
                      -6.25000000E-02  4.37500000E-01  6.25000000E-02
                       6.25000000E-02 -4.37500000E-01  6.25000000E-02
                       1.87500000E-01 -4.37500000E-01  6.25000000E-02
                       3.12500000E-01 -4.37500000E-01  6.25000000E-02
                       4.37500000E-01 -4.37500000E-01  6.25000000E-02
                      -4.37500000E-01 -4.37500000E-01  6.25000000E-02
                      -3.12500000E-01 -4.37500000E-01  6.25000000E-02
                      -1.87500000E-01 -4.37500000E-01  6.25000000E-02
                      -6.25000000E-02 -4.37500000E-01  6.25000000E-02
                       6.25000000E-02 -3.12500000E-01  6.25000000E-02
                       1.87500000E-01 -3.12500000E-01  6.25000000E-02
                       3.12500000E-01 -3.12500000E-01  6.25000000E-02
                       4.37500000E-01 -3.12500000E-01  6.25000000E-02
                      -4.37500000E-01 -3.12500000E-01  6.25000000E-02
                      -3.12500000E-01 -3.12500000E-01  6.25000000E-02
                      -1.87500000E-01 -3.12500000E-01  6.25000000E-02
                      -6.25000000E-02 -3.12500000E-01  6.25000000E-02
                       6.25000000E-02 -1.87500000E-01  6.25000000E-02
                       1.87500000E-01 -1.87500000E-01  6.25000000E-02
              kpt3     6.25000000E-02  6.25000000E-02  6.25000000E-02
                       1.87500000E-01  6.25000000E-02  6.25000000E-02
                       3.12500000E-01  6.25000000E-02  6.25000000E-02
                       4.37500000E-01  6.25000000E-02  6.25000000E-02
                      -4.37500000E-01  6.25000000E-02  6.25000000E-02
                      -3.12500000E-01  6.25000000E-02  6.25000000E-02
                      -1.87500000E-01  6.25000000E-02  6.25000000E-02
                      -6.25000000E-02  6.25000000E-02  6.25000000E-02
                       6.25000000E-02  1.87500000E-01  6.25000000E-02
                       1.87500000E-01  1.87500000E-01  6.25000000E-02
                       3.12500000E-01  1.87500000E-01  6.25000000E-02
                       4.37500000E-01  1.87500000E-01  6.25000000E-02
                      -4.37500000E-01  1.87500000E-01  6.25000000E-02
                      -3.12500000E-01  1.87500000E-01  6.25000000E-02
                      -1.87500000E-01  1.87500000E-01  6.25000000E-02
                      -6.25000000E-02  1.87500000E-01  6.25000000E-02
                       6.25000000E-02  3.12500000E-01  6.25000000E-02
                       1.87500000E-01  3.12500000E-01  6.25000000E-02
                       3.12500000E-01  3.12500000E-01  6.25000000E-02
                       4.37500000E-01  3.12500000E-01  6.25000000E-02
                      -4.37500000E-01  3.12500000E-01  6.25000000E-02
                      -3.12500000E-01  3.12500000E-01  6.25000000E-02
                      -1.87500000E-01  3.12500000E-01  6.25000000E-02
                      -6.25000000E-02  3.12500000E-01  6.25000000E-02
                       6.25000000E-02  4.37500000E-01  6.25000000E-02
                       1.87500000E-01  4.37500000E-01  6.25000000E-02
                       3.12500000E-01  4.37500000E-01  6.25000000E-02
                       4.37500000E-01  4.37500000E-01  6.25000000E-02
                      -4.37500000E-01  4.37500000E-01  6.25000000E-02
                      -3.12500000E-01  4.37500000E-01  6.25000000E-02
                      -1.87500000E-01  4.37500000E-01  6.25000000E-02
                      -6.25000000E-02  4.37500000E-01  6.25000000E-02
                       6.25000000E-02 -4.37500000E-01  6.25000000E-02
                       1.87500000E-01 -4.37500000E-01  6.25000000E-02
                       3.12500000E-01 -4.37500000E-01  6.25000000E-02
                       4.37500000E-01 -4.37500000E-01  6.25000000E-02
                      -4.37500000E-01 -4.37500000E-01  6.25000000E-02
                      -3.12500000E-01 -4.37500000E-01  6.25000000E-02
                      -1.87500000E-01 -4.37500000E-01  6.25000000E-02
                      -6.25000000E-02 -4.37500000E-01  6.25000000E-02
                       6.25000000E-02 -3.12500000E-01  6.25000000E-02
                       1.87500000E-01 -3.12500000E-01  6.25000000E-02
                       3.12500000E-01 -3.12500000E-01  6.25000000E-02
                       4.37500000E-01 -3.12500000E-01  6.25000000E-02
                      -4.37500000E-01 -3.12500000E-01  6.25000000E-02
                      -3.12500000E-01 -3.12500000E-01  6.25000000E-02
                      -1.87500000E-01 -3.12500000E-01  6.25000000E-02
                      -6.25000000E-02 -3.12500000E-01  6.25000000E-02
                       6.25000000E-02 -1.87500000E-01  6.25000000E-02
                       1.87500000E-01 -1.87500000E-01  6.25000000E-02
              kpt4     6.25000000E-02  6.25000000E-02  6.25000000E-02
                       1.87500000E-01  6.25000000E-02  6.25000000E-02
                       3.12500000E-01  6.25000000E-02  6.25000000E-02
                       4.37500000E-01  6.25000000E-02  6.25000000E-02
                      -4.37500000E-01  6.25000000E-02  6.25000000E-02
                      -3.12500000E-01  6.25000000E-02  6.25000000E-02
                      -1.87500000E-01  6.25000000E-02  6.25000000E-02
                      -6.25000000E-02  6.25000000E-02  6.25000000E-02
                       6.25000000E-02  1.87500000E-01  6.25000000E-02
                       1.87500000E-01  1.87500000E-01  6.25000000E-02
                       3.12500000E-01  1.87500000E-01  6.25000000E-02
                       4.37500000E-01  1.87500000E-01  6.25000000E-02
                      -4.37500000E-01  1.87500000E-01  6.25000000E-02
                      -3.12500000E-01  1.87500000E-01  6.25000000E-02
                      -1.87500000E-01  1.87500000E-01  6.25000000E-02
                      -6.25000000E-02  1.87500000E-01  6.25000000E-02
                       6.25000000E-02  3.12500000E-01  6.25000000E-02
                       1.87500000E-01  3.12500000E-01  6.25000000E-02
                       3.12500000E-01  3.12500000E-01  6.25000000E-02
                       4.37500000E-01  3.12500000E-01  6.25000000E-02
                      -4.37500000E-01  3.12500000E-01  6.25000000E-02
                      -3.12500000E-01  3.12500000E-01  6.25000000E-02
                      -1.87500000E-01  3.12500000E-01  6.25000000E-02
                      -6.25000000E-02  3.12500000E-01  6.25000000E-02
                       6.25000000E-02  4.37500000E-01  6.25000000E-02
                       1.87500000E-01  4.37500000E-01  6.25000000E-02
                       3.12500000E-01  4.37500000E-01  6.25000000E-02
                       4.37500000E-01  4.37500000E-01  6.25000000E-02
                      -4.37500000E-01  4.37500000E-01  6.25000000E-02
                      -3.12500000E-01  4.37500000E-01  6.25000000E-02
                      -1.87500000E-01  4.37500000E-01  6.25000000E-02
                      -6.25000000E-02  4.37500000E-01  6.25000000E-02
                       6.25000000E-02 -4.37500000E-01  6.25000000E-02
                       1.87500000E-01 -4.37500000E-01  6.25000000E-02
                       3.12500000E-01 -4.37500000E-01  6.25000000E-02
                       4.37500000E-01 -4.37500000E-01  6.25000000E-02
                      -4.37500000E-01 -4.37500000E-01  6.25000000E-02
                      -3.12500000E-01 -4.37500000E-01  6.25000000E-02
                      -1.87500000E-01 -4.37500000E-01  6.25000000E-02
                      -6.25000000E-02 -4.37500000E-01  6.25000000E-02
                       6.25000000E-02 -3.12500000E-01  6.25000000E-02
                       1.87500000E-01 -3.12500000E-01  6.25000000E-02
                       3.12500000E-01 -3.12500000E-01  6.25000000E-02
                       4.37500000E-01 -3.12500000E-01  6.25000000E-02
                      -4.37500000E-01 -3.12500000E-01  6.25000000E-02
                      -3.12500000E-01 -3.12500000E-01  6.25000000E-02
                      -1.87500000E-01 -3.12500000E-01  6.25000000E-02
                      -6.25000000E-02 -3.12500000E-01  6.25000000E-02
                       6.25000000E-02 -1.87500000E-01  6.25000000E-02
                       1.87500000E-01 -1.87500000E-01  6.25000000E-02
                       outvar_i_n : Printing only first  50 k-points.
           kptopt1          1
           kptopt2          2
           kptopt3          2
           kptopt4          2
         kptrlatt        8    0    0      0    8    0      0    0    8
          kptrlen      5.98564035E+01
P           mkmem1          2
P           mkmem2          8
P           mkmem3          8
P           mkmem4          8
P          mkqmem1          2
P          mkqmem2          8
P          mkqmem3          8
P          mkqmem4          8
P          mk1mem1          2
P          mk1mem2          8
P          mk1mem3          8
P          mk1mem4          8
            natom           5
            nband1         25
            nband2         20
            nband3         20
            nband4         20
           ndtset           4
            ngfft          45      45      45
          ngfftdg          60      60      60
             nkpt1         60
             nkpt2        256
             nkpt3        256
             nkpt4        256
            nstep          50
             nsym           6
           ntypat           3
              occ1     2.000000  2.000000  2.000000  2.000000  2.000000  2.000000
                       2.000000  2.000000  2.000000  2.000000  2.000000  2.000000
                       2.000000  2.000000  2.000000  2.000000  2.000000  2.000000
                       2.000000  2.000000  0.000000  0.000000  0.000000  0.000000
                       0.000000
              occ3     2.000000  2.000000  2.000000  2.000000  2.000000  2.000000
                       2.000000  2.000000  2.000000  2.000000  2.000000  2.000000
                       2.000000  2.000000  2.000000  2.000000  2.000000  2.000000
                       2.000000  2.000000
              occ4     2.000000  2.000000  2.000000  2.000000  2.000000  2.000000
                       2.000000  2.000000  2.000000  2.000000  2.000000  2.000000
                       2.000000  2.000000  2.000000  2.000000  2.000000  2.000000
                       2.000000  2.000000
        optdriver1          0
        optdriver2          0
        optdriver3          1
        optdriver4          1
        pawecutdg      6.00000000E+01 Hartree
         pawxcdev           0
          prepanl1          0
          prepanl2          0
          prepanl3          0
          prepanl4          1
           prtden1          1
           prtden2          0
           prtden3          0
           prtden4          1
           prteig           0
          rfatpol1          1       1
          rfatpol2          1       1
          rfatpol3          1       1
          rfatpol4          1       5
            rfdir1          0       0       0
            rfdir2          0       0       0
            rfdir3          1       1       1
            rfdir4          1       1       1
           rfelfd1          0
           rfelfd2          0
           rfelfd3          2
           rfelfd4          3
           rfphon1          0
           rfphon2          0
           rfphon3          0
           rfphon4          1
            rprim      9.9999957770E-01 -6.5074707775E-04 -6.4893730875E-04
                       2.1418414100E-03  9.9999749569E-01 -6.4893730873E-04
                       2.1418414101E-03  2.1358684932E-03  9.9999542528E-01
           shiftk      5.00000000E-01  5.00000000E-01  5.00000000E-01
          spgroup         160
           symrel      1  0  0   0  1  0   0  0  1       0  1  0   1  0  0   0  0  1
                       0  0  1   1  0  0   0  1  0       1  0  0   0  0  1   0  1  0
                       0  1  0   0  0  1   1  0  0       0  0  1   0  1  0   1  0  0
           toldfe1     1.00000000E-12 Hartree
           toldfe2     0.00000000E+00 Hartree
           toldfe3     1.00000000E-13 Hartree
           toldfe4     0.00000000E+00 Hartree
           tolvrs1     0.00000000E+00
           tolvrs2     0.00000000E+00
           tolvrs3     0.00000000E+00
           tolvrs4     1.00000000E-12
           tolwfr1     0.00000000E+00
           tolwfr2     1.00000000E-20
           tolwfr3     0.00000000E+00
           tolwfr4     0.00000000E+00
            typat      1  2  3  3  3
           useylm           1
              wtk1       0.00391    0.01172    0.01172    0.01172    0.01172    0.01172
                         0.01172    0.01172    0.01172    0.02344    0.02344    0.02344
                         0.02344    0.02344    0.02344    0.01172    0.02344    0.02344
                         0.02344    0.02344    0.02344    0.01172    0.02344    0.02344
                         0.02344    0.02344    0.01172    0.02344    0.02344    0.01172
                         0.02344    0.01172    0.00391    0.01172    0.01172    0.01172
                         0.01172    0.01172    0.01172    0.02344    0.02344    0.02344
                         0.02344    0.01172    0.02344    0.02344    0.02344    0.01172
                         0.02344    0.01172
              wtk2       0.00391    0.00391    0.00391    0.00391    0.00391    0.00391
                         0.00391    0.00391    0.00391    0.00391    0.00391    0.00391
                         0.00391    0.00391    0.00391    0.00391    0.00391    0.00391
                         0.00391    0.00391    0.00391    0.00391    0.00391    0.00391
                         0.00391    0.00391    0.00391    0.00391    0.00391    0.00391
                         0.00391    0.00391    0.00391    0.00391    0.00391    0.00391
                         0.00391    0.00391    0.00391    0.00391    0.00391    0.00391
                         0.00391    0.00391    0.00391    0.00391    0.00391    0.00391
                         0.00391    0.00391
              wtk3       0.00391    0.00391    0.00391    0.00391    0.00391    0.00391
                         0.00391    0.00391    0.00391    0.00391    0.00391    0.00391
                         0.00391    0.00391    0.00391    0.00391    0.00391    0.00391
                         0.00391    0.00391    0.00391    0.00391    0.00391    0.00391
                         0.00391    0.00391    0.00391    0.00391    0.00391    0.00391
                         0.00391    0.00391    0.00391    0.00391    0.00391    0.00391
                         0.00391    0.00391    0.00391    0.00391    0.00391    0.00391
                         0.00391    0.00391    0.00391    0.00391    0.00391    0.00391
                         0.00391    0.00391
              wtk4       0.00391    0.00391    0.00391    0.00391    0.00391    0.00391
                         0.00391    0.00391    0.00391    0.00391    0.00391    0.00391
                         0.00391    0.00391    0.00391    0.00391    0.00391    0.00391
                         0.00391    0.00391    0.00391    0.00391    0.00391    0.00391
                         0.00391    0.00391    0.00391    0.00391    0.00391    0.00391
                         0.00391    0.00391    0.00391    0.00391    0.00391    0.00391
                         0.00391    0.00391    0.00391    0.00391    0.00391    0.00391
                         0.00391    0.00391    0.00391    0.00391    0.00391    0.00391
                         0.00391    0.00391
                       outvars : Printing only first  50 k-points.
           xangst      4.9534092411E-03  4.9395956753E-03  4.9258589394E-03
                       1.9532527609E+00  1.9478057274E+00  1.9423889900E+00
                       2.0274433630E+00  2.0217894343E+00  6.2121863356E-02
                       7.3413470263E-02  2.0272462544E+00  2.0216085972E+00
                       2.0274433630E+00  6.7751922273E-02  2.0216085972E+00
            xcart      9.3605868898E-03  9.3344830334E-03  9.3085243647E-03
                       3.6911127863E+00  3.6808193849E+00  3.6705832347E+00
                       3.8313127060E+00  3.8206283292E+00  1.1739330861E-01
                       1.3873135326E-01  3.8309402247E+00  3.8202865966E+00
                       3.8313127060E+00  1.2803257807E-01  3.8202865966E+00
             xred      1.2457365970E-03  1.2457365970E-03  1.2457365970E-03
                       4.9122499857E-01  4.9122499857E-01  4.9122499857E-01
                       5.1093805294E-01  5.1093805294E-01  1.6353199942E-02
                       1.6353199942E-02  5.1093805294E-01  5.1093805294E-01
                       5.1093805294E-01  1.6353199942E-02  5.1093805294E-01
            znucl       56.00000   22.00000    8.00000
 
================================================================================
 
 chkinp: Checking input parameters for consistency, jdtset=   1.
 
 chkinp: Checking input parameters for consistency, jdtset=   2.
 
 chkinp: Checking input parameters for consistency, jdtset=   3.
 
 chkinp: Checking input parameters for consistency, jdtset=   4.
 DATA TYPE INFORMATION: 
 REAL:      Data type name: REAL(DP) 
            Kind value:      8
            Precision:      15
            Smallest nonnegligible quantity relative to 1: 0.22204460E-015
            Smallest positive number:                      0.22250739E-307
            Largest representable number:                  0.17976931E+309
 INTEGER:   Data type name: INTEGER(default) 
            Kind value: 4
            Bit size:   32
            Largest representable number: 2147483647
 LOGICAL:   Data type name: LOGICAL 
            Kind value: 4
 CHARACTER: Data type name: CHARACTER             Kind value: 1

  ==== OpenMP parallelism is ON ====
- Max_threads:       1
- Num_threads:       1
- Num_procs:         4
- Dynamic:           F
 
  ==== Using MPI-2 specifications ==== 
  MPI-IO support is ON
  xmpi_tag_ub ................       524287
  xmpi_bsize_ch ..............            1
  xmpi_bsize_int .............            4
  xmpi_bsize_sp ..............            4
  xmpi_bsize_dp ..............            8
  xmpi_bsize_spc .............            8
  xmpi_bsize_dpc .............           16
  xmpio_bsize_frm ............            4
  xmpi_address_kind ..........            8
  xmpi_offset_kind ...........            8
  MPI_WTICK ..................   4.089329739710207E-010
 
================================================================================
== DATASET  1 ==================================================================
-   mpi_nproc: 32, omp_nthreads: 1 (-1 if OMP is not activated)
-    --> not optimal distribution: autoparal keyword recommended in input file <--
 
 
--- !COMMENT
src_file: m_xgScalapack.F90
src_line: 236
message: |
    xgScalapack in auto mode
...
 
 
 getdim_nloc : deduce lmnmax  =  18, lnmax  =   6,
                      lmnmaxso=  18, lnmaxso=   6.
 Slater exchange
 P. A. M. Dirac, Math. Proc. Cambridge Philos. Soc. 26, 376 (1930)
 F. Bloch, Z. Phys. 57, 545 (1929)
 Perdew & Wang
 J. P. Perdew and Y. Wang, Phys. Rev. B 45, 13244 (1992)
 
 Unit cell volume ucvol=  4.1885186E+02 bohr^3
 Angles (23,13,12)=  8.99145424E+01  8.99145424E+01  8.99145424E+01 degrees
 
 Coarse grid specifications (used for wave-functions):
 
 getcut: wavevector=  0.0000  0.0000  0.0000  ngfft=  45  45  45
         ecut(hartree)=     38.588   => boxcut(ratio)=   2.10303
 
 Fine grid specifications (used for densities):
 
 getcut: wavevector=  0.0000  0.0000  0.0000  ngfft=  60  60  60
         ecut(hartree)=     66.150   => boxcut(ratio)=   2.19029
- pspini: atom type   1  psp file is /work/08697/sohmapte/ls6/pseudopotentials/JTH-LDA-atomicdata-1.1/ATOMICDATA/Ba.LDA_PW-JTH.xml
- pspatm: opening atomic psp file    /work/08697/sohmapte/ls6/pseudopotentials/JTH-LDA-atomicdata-1.1/ATOMICDATA/Ba.LDA_PW-JTH.xml
- pspatm : Reading pseudopotential header in XML form from /work/08697/sohmapte/ls6/pseudopotentials/JTH-LDA-atomicdata-1.1/ATOMICDATA/Ba.LDA_PW-JTH.xml
 Pseudopotential format is: paw10
 basis_size (lnmax)=  6 (lmn_size= 18), orbitals=   0   0   1   1   2   2
 Spheres core radius: rc_sph= 2.31518568
 1 radial meshes are used:
  - mesh 1: r(i)=AA*[exp(BB*(i-1))-1], size=1500 , AA= 0.15658E-03 BB= 0.87685E-02
 Shapefunction is SIN type: shapef(r)=[sin(pi*r/rshp)/(pi*r/rshp)]**2
 Radius for shape functions =  2.01210979
 mmax= 1500
 Radial grid used for partial waves is grid 1
 Radial grid used for projectors is grid 1
 Radial grid used for (t)core density is grid 1
 Radial grid used for Vloc is grid 1
 Radial grid used for pseudo valence density is grid 1
 Mesh size for Vloc has been set to 1341 to avoid numerical noise.
 Compensation charge density is not taken into account in XC energy/potential
 beta integral value:      -0.881134E+02
 pspatm: atomic psp has been read  and splines computed
 
- pspini: atom type   2  psp file is /work/08697/sohmapte/ls6/pseudopotentials/JTH-LDA-atomicdata-1.1/ATOMICDATA/Ti.LDA_PW-JTH.xml
- pspatm: opening atomic psp file    /work/08697/sohmapte/ls6/pseudopotentials/JTH-LDA-atomicdata-1.1/ATOMICDATA/Ti.LDA_PW-JTH.xml
- pspatm : Reading pseudopotential header in XML form from /work/08697/sohmapte/ls6/pseudopotentials/JTH-LDA-atomicdata-1.1/ATOMICDATA/Ti.LDA_PW-JTH.xml
 Pseudopotential format is: paw10
 basis_size (lnmax)=  6 (lmn_size= 18), orbitals=   0   0   1   1   2   2
 Spheres core radius: rc_sph= 2.30000000
 1 radial meshes are used:
  - mesh 1: r(i)=AA*[exp(BB*(i-1))-1], size= 899 , AA= 0.64047E-03 BB= 0.14090E-01
 Shapefunction is BESSEL type: shapef(r,l)=aa(1,l)*jl(q(1,l)*r)+aa(2,l)*jl(q(2,l)*r)
 Radius for shape functions =  2.02598965
 mmax=  899
 Radial grid used for partial waves is grid 1
 Radial grid used for projectors is grid 1
 Radial grid used for (t)core density is grid 1
 Radial grid used for Vloc is grid 1
 Radial grid used for pseudo valence density is grid 1
 Mesh size for Vloc has been set to  735 to avoid numerical noise.
 Compensation charge density is not taken into account in XC energy/potential
 beta integral value:      -0.271282E+02
 pspatm: atomic psp has been read  and splines computed
 
- pspini: atom type   3  psp file is /work/08697/sohmapte/ls6/pseudopotentials/JTH-LDA-atomicdata-1.1/ATOMICDATA/O.LDA_PW-JTH.xml
- pspatm: opening atomic psp file    /work/08697/sohmapte/ls6/pseudopotentials/JTH-LDA-atomicdata-1.1/ATOMICDATA/O.LDA_PW-JTH.xml
- pspatm : Reading pseudopotential header in XML form from /work/08697/sohmapte/ls6/pseudopotentials/JTH-LDA-atomicdata-1.1/ATOMICDATA/O.LDA_PW-JTH.xml
 Pseudopotential format is: paw10
 basis_size (lnmax)=  4 (lmn_size=  8), orbitals=   0   0   1   1
 Spheres core radius: rc_sph= 1.41465230
 1 radial meshes are used:
  - mesh 1: r(i)=AA*[exp(BB*(i-1))-1], size=2001 , AA= 0.72565E-03 BB= 0.58052E-02
 Shapefunction is SIN type: shapef(r)=[sin(pi*r/rshp)/(pi*r/rshp)]**2
 Radius for shape functions =  1.20231231
 mmax= 2001
 Radial grid used for partial waves is grid 1
 Radial grid used for projectors is grid 1
 Radial grid used for (t)core density is grid 1
 Radial grid used for Vloc is grid 1
 Radial grid used for pseudo valence density is grid 1
 Mesh size for Vloc has been set to 1762 to avoid numerical noise.
 Compensation charge density is not taken into account in XC energy/potential
 beta integral value:      -0.477232E+01
 pspatm: atomic psp has been read  and splines computed
 
   3.93253557E+03                                ecore*ucvol(ha*bohr**3)
 ==== Info on pseudopotentials ====
  PAW calculation
  Number of pseudopotentials ..    3
  Number of types of atoms   ..    3
  Scalar calculation (no spin-orbit term)
  Nonlocal part applied using real spherical harmonics
  Max number of non-local projectors over l and type   2
  Highest angular momentum +1 .......   3
  Max number of (l,n)   components ..   6
  Max number of (l,m,n) components ..  18
 
 Pseudo-Core Charge Info: 
   Number of radial points for pseudo-core charge ..    1
   XC core-correction treatment (optnlxccc) ........    1
   Radius for pseudo-core charge for each type ..... 
 
  - Atom type    1 has pseudo-core radius .. 80.0000
  - Atom type    2 has pseudo-core radius .. *******
  - Atom type    3 has pseudo-core radius .. 80.0000
 
 Info on the Q-grid used for form factors in spline form: 
   Number of q-points for radial functions ffspl ..   3001
   Number of q-points for vlspl ...................   3001
   vloc is computed in Reciprocal Space
 
  XC functional for type 1 is -1012
  XC functional for type 2 is -1012
  XC functional for type 3 is -1012
 
 symatm: atom number 1 is reached starting at atom
   1  1  1  1  1  1
 symatm: atom number 2 is reached starting at atom
   2  2  2  2  2  2
 symatm: atom number 3 is reached starting at atom
   3  3  4  5  5  4
 symatm: atom number 4 is reached starting at atom
   4  5  5  4  3  3
 symatm: atom number 5 is reached starting at atom
   5  4  3  3  4  5
 wfconv:    25 bands initialized randomly with npw=  4827, for ikpt=     1
 wfconv:    25 bands initialized randomly with npw=  4802, for ikpt=     2
_setup2: Arith. and geom. avg. npw (full set) are    4795.699    4795.688
 initro: for itypat=  1, take pseudo charge density from pp file
 initro: for itypat=  2, take pseudo charge density from pp file
 initro: for itypat=  3, take pseudo charge density from pp file
 
================================================================================
 FFT (fine) grid used in SCF cycle:
 
 getcut: wavevector=  0.0000  0.0000  0.0000  ngfft=  60  60  60
         ecut(hartree)=     60.000   => boxcut(ratio)=   2.29980
 
 getcut : COMMENT -
  Note that boxcut > 2.2 ; recall that boxcut=Gcut(box)/Gcut(sphere) = 2
  is sufficient for exact treatment of convolution.
  Such a large boxcut is a waste : you could raise ecut
  e.g. ecut=   79.336479 Hartrees makes boxcut=2
 
 
--- !WARNING
src_file: m_paw_tools.F90
src_line: 245
message: |
    PAW SPHERES ARE OVERLAPPING!
       There are     3 pairs of overlapping atoms.
       The maximum overlap percentage is obtained for the atoms   2 and   5.
        | Distance between atoms   2 and   5 is  :   3.55870
        | PAW radius of the sphere around atom   2 is:   2.30000
        | PAW radius of the sphere around atom   5 is:   1.41465
        | This leads to a (voluminal) overlap ratio of  0.5545 %
    THIS IS DANGEROUS, as PAW formalism assumes non-overlapping PAW spheres.
...
 
       Overlap ratio seems to be acceptable (less than value
       of "pawovlp" input parameter): execution will continue.
       But be aware that results might be approximate,
       and even inaccurate (depending on your physical system) !
 
 
 1/G**2 cut-off applied in the following step : cutoff-mode = CRYSTAL
 
 1/G**2 cut-off applied in the following step : cutoff-mode = CRYSTAL
 
 1/G**2 cut-off applied in the following step : cutoff-mode = CRYSTAL
 average electrostatic smooth potential [Ha] , [eV]      0.000000        0.000000
 
 ****** Psp strength Dij in Ha (atom      1) *****
   0.44879   0.06784   0.00007   0.00007   0.00007  -0.00000  -0.00000  -0.00000   0.00000   0.00000  -0.00000   0.00000 ...
   0.06784   0.00950   0.00001   0.00001   0.00001   0.00001   0.00001   0.00001   0.00000   0.00000  -0.00000   0.00000 ...
   0.00007   0.00001  -0.16566   0.00000   0.00000  -0.00440   0.00000   0.00000   0.00002   0.00002  -0.00001  -0.00000 ...
   0.00007   0.00001   0.00000  -0.16566   0.00000   0.00000  -0.00440   0.00000  -0.00000   0.00002   0.00001   0.00002 ...
   0.00007   0.00001   0.00000   0.00000  -0.16566   0.00000   0.00000  -0.00440   0.00002  -0.00000  -0.00001   0.00002 ...
  -0.00000   0.00001  -0.00440   0.00000   0.00000  -1.13992   0.00000   0.00000   0.00001   0.00001  -0.00000  -0.00000 ...
  -0.00000   0.00001   0.00000  -0.00440   0.00000   0.00000  -1.13992   0.00000  -0.00000   0.00001   0.00000   0.00001 ...
  -0.00000   0.00001   0.00000   0.00000  -0.00440   0.00000   0.00000  -1.13992   0.00001  -0.00000  -0.00000   0.00001 ...
   0.00000   0.00000   0.00002  -0.00000   0.00002   0.00001  -0.00000   0.00001  -0.03051  -0.00000  -0.00000  -0.00000 ...
   0.00000   0.00000   0.00002   0.00002  -0.00000   0.00001   0.00001  -0.00000  -0.00000  -0.03051   0.00000  -0.00000 ...
  -0.00000  -0.00000  -0.00001   0.00001  -0.00001  -0.00000   0.00000  -0.00000  -0.00000   0.00000  -0.03052   0.00000 ...
   0.00000   0.00000  -0.00000   0.00002   0.00002  -0.00000   0.00001   0.00001  -0.00000  -0.00000   0.00000  -0.03051 ...
   ...  only 12  components have been written...
 
 
 ITER STEP NUMBER     1
 Max number of non-self-consistent loops: 2
 
 PAW TEST:
 ========= Values of RHOIJ before symetrization =========
 
 Atom #  1
   1.51662   0.35606  -0.01976  -0.00282   0.02437  -0.00146  -0.00082  -0.00127  -0.02234   0.00100  -0.00186  -0.01283 ...
   0.35606   2.06223   0.07618   0.03561  -0.06645   0.00195   0.00107  -0.00473   0.00631   0.00033  -0.01443  -0.01071 ...
  -0.01976   0.07618   1.67369  -0.00759   0.01756   0.03818   0.00228  -0.00189   0.00406   0.00093  -0.00605  -0.01686 ...
  -0.00282   0.03561  -0.00759   1.66385   0.00020   0.00071   0.04468  -0.00114  -0.00429   0.00465   0.00964   0.01565 ...
   0.02437  -0.06645   0.01756   0.00020   1.67196  -0.00395  -0.00170   0.03621   0.00022   0.00464   0.01011   0.03291 ...
  -0.00146   0.00195   0.03818   0.00071  -0.00395   0.00577  -0.00010  -0.00009   0.00061  -0.00044   0.00102  -0.00107 ...
  -0.00082   0.00107   0.00228   0.04468  -0.00170  -0.00010   0.00555   0.00027  -0.00058   0.00065   0.00133   0.00063 ...
  -0.00127  -0.00473  -0.00189  -0.00114   0.03621  -0.00009   0.00027   0.00614   0.00199  -0.00046   0.00175  -0.00074 ...
  -0.02234   0.00631   0.00406  -0.00429   0.00022   0.00061  -0.00058   0.00199   0.29144   0.00114  -0.01394  -0.00139 ...
   0.00100   0.00033   0.00093   0.00465   0.00464  -0.00044   0.00065  -0.00046   0.00114   0.30194  -0.00177   0.00230 ...
  -0.00186  -0.01443  -0.00605   0.00964   0.01011   0.00102   0.00133   0.00175  -0.01394  -0.00177   0.28542  -0.00991 ...
  -0.01283  -0.01071  -0.01686   0.01565   0.03291  -0.00107   0.00063  -0.00074  -0.00139   0.00230  -0.00991   0.32355 ...
   ...  only 12  components have been written...
 
 
 PAW TEST:
 ========= Values of RHOIJ after symetrization =========
 
 Atom #  1
   1.51662   0.35606   0.00062   0.00062   0.00062  -0.00118  -0.00118  -0.00119  -0.01145  -0.01139   0.00006  -0.01142 ...
   0.35606   2.06223   0.01502   0.01497   0.01506  -0.00058  -0.00057  -0.00058  -0.00130  -0.00129   0.00001  -0.00130 ...
   0.00062   0.01502   1.66983   0.00341   0.00343   0.03969  -0.00096  -0.00096   0.00970   0.00975   0.00140  -0.00550 ...
   0.00062   0.01497   0.00341   1.66981   0.00342  -0.00096   0.03969  -0.00096  -0.00550   0.00971  -0.00289   0.00973 ...
   0.00062   0.01506   0.00343   0.00342   1.66985  -0.00096  -0.00096   0.03968   0.00974  -0.00550   0.00141   0.00972 ...
  -0.00118  -0.00058   0.03969  -0.00096  -0.00096   0.00582   0.00003   0.00003   0.00045   0.00045   0.00018  -0.00070 ...
  -0.00118  -0.00057  -0.00096   0.03969  -0.00096   0.00003   0.00582   0.00003  -0.00070   0.00045  -0.00037   0.00045 ...
  -0.00119  -0.00058  -0.00096  -0.00096   0.03968   0.00003   0.00003   0.00582   0.00045  -0.00070   0.00018   0.00045 ...
  -0.01145  -0.00130   0.00970  -0.00550   0.00974   0.00045  -0.00070   0.00045   0.30564   0.00070   0.00240   0.00072 ...
  -0.01139  -0.00129   0.00975   0.00971  -0.00550   0.00045   0.00045  -0.00070   0.00070   0.30563  -0.00125   0.00069 ...
   0.00006   0.00001   0.00140  -0.00289   0.00141   0.00018  -0.00037   0.00018   0.00240  -0.00125   0.28666  -0.00125 ...
  -0.01142  -0.00130  -0.00550   0.00973   0.00972  -0.00070   0.00045   0.00045   0.00072   0.00069  -0.00125   0.30564 ...
   ...  only 12  components have been written...
 
 Total charge density [el/Bohr^3]
      Maximum=    1.3132E+00  at reduced coord.    0.4833    0.4833    0.4833
      Minimum=   -9.9613E-02  at reduced coord.    0.0000    0.0000    0.0000
   Integrated=    4.0000E+01
 ETOT  1  -131.85383813773    -1.319E+02 2.971E+00 1.236E+02
 scprqt: <Vxc>= -4.3872263E-01 hartree
 
 Simple mixing update:
  residual square of the potential:   1.532147137178015E-004
 
 1/G**2 cut-off applied in the following step : cutoff-mode = CRYSTAL
{SCF_istep: 1 , Vnl|psi>: 543 , wall_time: '  1.31 [s] '} <<< TIME
 average electrostatic smooth potential [Ha] , [eV]      0.000000        0.000000
 
 ****** Psp strength Dij in Ha (atom      1) *****
   0.50302   0.07471   0.00002   0.00002   0.00002   0.00009   0.00009   0.00009   0.00001   0.00001  -0.00000   0.00001 ...
   0.07471   0.01054   0.00001   0.00001   0.00001   0.00003   0.00003   0.00003   0.00000   0.00000  -0.00000   0.00000 ...
   0.00002   0.00001  -0.15335   0.00001   0.00001  -0.01177  -0.00001  -0.00001   0.00002   0.00002  -0.00001  -0.00001 ...
   0.00002   0.00001   0.00001  -0.15335   0.00001  -0.00001  -0.01177  -0.00001  -0.00001   0.00002   0.00001   0.00002 ...
   0.00002   0.00001   0.00001   0.00001  -0.15335  -0.00001  -0.00001  -0.01177   0.00002  -0.00001  -0.00001   0.00002 ...
   0.00009   0.00003  -0.01177  -0.00001  -0.00001  -1.13110  -0.00000  -0.00000   0.00004   0.00004  -0.00001  -0.00001 ...
   0.00009   0.00003  -0.00001  -0.01177  -0.00001  -0.00000  -1.13110  -0.00000  -0.00001   0.00004   0.00003   0.00004 ...
   0.00009   0.00003  -0.00001  -0.00001  -0.01177  -0.00000  -0.00000  -1.13110   0.00004  -0.00001  -0.00001   0.00004 ...
   0.00001   0.00000   0.00002  -0.00001   0.00002   0.00004  -0.00001   0.00004  -0.03055   0.00000  -0.00000   0.00000 ...
   0.00001   0.00000   0.00002   0.00002  -0.00001   0.00004   0.00004  -0.00001   0.00000  -0.03055   0.00000   0.00000 ...
  -0.00000  -0.00000  -0.00001   0.00001  -0.00001  -0.00001   0.00003  -0.00001  -0.00000   0.00000  -0.03055   0.00000 ...
   0.00001   0.00000  -0.00001   0.00002   0.00002  -0.00001   0.00004   0.00004   0.00000   0.00000   0.00000  -0.03055 ...
   ...  only 12  components have been written...
 
 
 ITER STEP NUMBER     2
 Max number of non-self-consistent loops: 2
 
 PAW TEST:
 ========= Values of RHOIJ before symetrization =========
 
 Atom #  1
   2.10621  -0.11551  -0.00466  -0.00510  -0.00427   0.00049   0.00052   0.00035   0.00340  -0.00864  -0.02206   0.00608 ...
  -0.11551   0.10351   0.00518   0.00565   0.00418  -0.00034  -0.00046  -0.00038  -0.00270   0.00926   0.02089  -0.00489 ...
  -0.00466   0.00518   2.12514  -0.01302   0.00316  -0.02017   0.00156  -0.00041   0.00628   0.00756  -0.00112   0.00200 ...
  -0.00510   0.00565  -0.01302   2.13889   0.00948   0.00162  -0.01817  -0.00116   0.00022   0.00265   0.00084   0.00307 ...
  -0.00427   0.00418   0.00316   0.00948   2.12419  -0.00040  -0.00108  -0.02017   0.00323  -0.00146  -0.00228   0.00540 ...
   0.00049  -0.00034  -0.02017   0.00162  -0.00040   0.00170  -0.00017   0.00005  -0.00050  -0.00069   0.00009  -0.00013 ...
   0.00052  -0.00046   0.00156  -0.01817  -0.00108  -0.00017   0.00117   0.00013   0.00003  -0.00024  -0.00005  -0.00026 ...
   0.00035  -0.00038  -0.00041  -0.00116  -0.02017   0.00005   0.00013   0.00170  -0.00020   0.00016   0.00022  -0.00049 ...
   0.00340  -0.00270   0.00628   0.00022   0.00323  -0.00050   0.00003  -0.00020   0.09737   0.00498   0.00408  -0.00788 ...
  -0.00864   0.00926   0.00756   0.00265  -0.00146  -0.00069  -0.00024   0.00016   0.00498   0.10310   0.00852   0.00131 ...
  -0.02206   0.02089  -0.00112   0.00084  -0.00228   0.00009  -0.00005   0.00022   0.00408   0.00852   0.09170  -0.00591 ...
   0.00608  -0.00489   0.00200   0.00307   0.00540  -0.00013  -0.00026  -0.00049  -0.00788   0.00131  -0.00591   0.10384 ...
   ...  only 12  components have been written...
 
 
 PAW TEST:
 ========= Values of RHOIJ after symetrization =========
 
 Atom #  1
   2.10621  -0.11551  -0.00468  -0.00466  -0.00469   0.00045   0.00045   0.00045   0.00033   0.00033  -0.00000   0.00033 ...
  -0.11551   0.10351   0.00500   0.00499   0.00501  -0.00039  -0.00039  -0.00039   0.00051   0.00051  -0.00000   0.00051 ...
  -0.00468   0.00500   2.12940  -0.00012  -0.00013  -0.01950   0.00002   0.00002   0.00470   0.00469  -0.00063   0.00025 ...
  -0.00466   0.00499  -0.00012   2.12941  -0.00013   0.00002  -0.01950   0.00002   0.00025   0.00469   0.00122   0.00470 ...
  -0.00469   0.00501  -0.00013  -0.00013   2.12940   0.00002   0.00002  -0.01950   0.00471   0.00025  -0.00063   0.00470 ...
   0.00045  -0.00039  -0.01950   0.00002   0.00002   0.00152   0.00000   0.00000  -0.00040  -0.00040   0.00006   0.00002 ...
   0.00045  -0.00039   0.00002  -0.01950   0.00002   0.00000   0.00152   0.00000   0.00002  -0.00039  -0.00011  -0.00040 ...
   0.00045  -0.00039   0.00002   0.00002  -0.01950   0.00000   0.00000   0.00152  -0.00040   0.00002   0.00006  -0.00040 ...
   0.00033   0.00051   0.00470   0.00025   0.00471  -0.00040   0.00002  -0.00040   0.10143  -0.00058  -0.00033  -0.00058 ...
   0.00033   0.00051   0.00469   0.00469   0.00025  -0.00040  -0.00039   0.00002  -0.00058   0.10144   0.00010  -0.00058 ...
  -0.00000  -0.00000  -0.00063   0.00122  -0.00063   0.00006  -0.00011   0.00006  -0.00033   0.00010   0.07223   0.00010 ...
   0.00033   0.00051   0.00025   0.00470   0.00470   0.00002  -0.00040  -0.00040  -0.00058  -0.00058   0.00010   0.10144 ...
   ...  only 12  components have been written...
 
 Total charge density [el/Bohr^3]
      Maximum=    1.4380E+00  at reduced coord.    0.5000    0.5000    0.5000
      Minimum=   -1.0702E-01  at reduced coord.    0.0000    0.0000    0.0000
   Integrated=    4.0000E+01
 ETOT  2  -133.55331637305    -1.699E+00 9.444E-02 5.907E+01
 scprqt: <Vxc>= -4.3515266E-01 hartree
 
 Pulay update with  1 previous iterations:
 mixing of old trial potential: alpha(m:m-4)=  0.561      0.439
{SCF_istep: 2 , Vnl|psi>: 550 , wall_time: '  1.13 [s] '} <<< TIME
 average electrostatic smooth potential [Ha] , [eV]      0.000000        0.000000
 
 ****** Psp strength Dij in Ha (atom      1) *****
   0.49537   0.07407   0.00006   0.00006   0.00006   0.00005   0.00005   0.00005   0.00001   0.00001  -0.00000   0.00001 ...
   0.07407   0.01052   0.00001   0.00001   0.00001   0.00002   0.00002   0.00002   0.00000   0.00000  -0.00000   0.00000 ...
   0.00006   0.00001  -0.15283   0.00001   0.00001  -0.00813  -0.00000  -0.00000   0.00002   0.00002  -0.00001  -0.00000 ...
   0.00006   0.00001   0.00001  -0.15283   0.00001  -0.00000  -0.00813  -0.00000  -0.00000   0.00002   0.00002   0.00002 ...
   0.00006   0.00001   0.00001   0.00001  -0.15283  -0.00000  -0.00000  -0.00813   0.00002  -0.00000  -0.00001   0.00002 ...
   0.00005   0.00002  -0.00813  -0.00000  -0.00000  -1.12999   0.00000   0.00000   0.00003   0.00003  -0.00001  -0.00000 ...
   0.00005   0.00002  -0.00000  -0.00813  -0.00000   0.00000  -1.12999   0.00000  -0.00000   0.00003   0.00002   0.00003 ...
   0.00005   0.00002  -0.00000  -0.00000  -0.00813   0.00000   0.00000  -1.12999   0.00003  -0.00000  -0.00001   0.00003 ...
   0.00001   0.00000   0.00002  -0.00000   0.00002   0.00003  -0.00000   0.00003  -0.02971   0.00000  -0.00000   0.00000 ...
   0.00001   0.00000   0.00002   0.00002  -0.00000   0.00003   0.00003  -0.00000   0.00000  -0.02971   0.00000   0.00000 ...
  -0.00000  -0.00000  -0.00001   0.00002  -0.00001  -0.00001   0.00002  -0.00001  -0.00000   0.00000  -0.02972   0.00000 ...
   0.00001   0.00000  -0.00000   0.00002   0.00002  -0.00000   0.00003   0.00003   0.00000   0.00000   0.00000  -0.02971 ...
   ...  only 12  components have been written...
 
 
 ITER STEP NUMBER     3
 
 PAW TEST:
 ========= Values of RHOIJ before symetrization =========
 
 Atom #  1
   2.09115  -0.11218  -0.00482  -0.00562  -0.00503   0.00045   0.00053   0.00042   0.00296  -0.00851  -0.02179   0.00625 ...
  -0.11218   0.10276   0.00560   0.00702   0.00612  -0.00028  -0.00042  -0.00032  -0.00240   0.00889   0.02127  -0.00533 ...
  -0.00482   0.00560   2.09858  -0.01423   0.00303  -0.01726   0.00180  -0.00044   0.00619   0.00578  -0.00161   0.00204 ...
  -0.00562   0.00702  -0.01423   2.11383   0.01113   0.00182  -0.01495  -0.00141   0.00079   0.00356   0.00273   0.00419 ...
  -0.00503   0.00612   0.00303   0.01113   2.09800  -0.00044  -0.00140  -0.01717   0.00449  -0.00238  -0.00308   0.00458 ...
   0.00045  -0.00028  -0.01726   0.00182  -0.00044   0.00154  -0.00018   0.00005  -0.00038  -0.00042   0.00013  -0.00013 ...
   0.00053  -0.00042   0.00180  -0.01495  -0.00140  -0.00018   0.00112   0.00014  -0.00003  -0.00021  -0.00016  -0.00027 ...
   0.00042  -0.00032  -0.00044  -0.00141  -0.01717   0.00005   0.00014   0.00153  -0.00023   0.00020   0.00025  -0.00031 ...
   0.00296  -0.00240   0.00619   0.00079   0.00449  -0.00038  -0.00003  -0.00023   0.08029   0.00321   0.00358  -0.00531 ...
  -0.00851   0.00889   0.00578   0.00356  -0.00238  -0.00042  -0.00021   0.00020   0.00321   0.08869   0.00642   0.00054 ...
  -0.02179   0.02127  -0.00161   0.00273  -0.00308   0.00013  -0.00016   0.00025   0.00358   0.00642   0.07682  -0.00434 ...
   0.00625  -0.00533   0.00204   0.00419   0.00458  -0.00013  -0.00027  -0.00031  -0.00531   0.00054  -0.00434   0.08900 ...
   ...  only 12  components have been written...
 
 
 PAW TEST:
 ========= Values of RHOIJ after symetrization =========
 
 Atom #  1
   2.09115  -0.11218  -0.00516  -0.00515  -0.00517   0.00047   0.00047   0.00047   0.00028   0.00028  -0.00000   0.00028 ...
  -0.11218   0.10276   0.00624   0.00623   0.00626  -0.00034  -0.00033  -0.00034   0.00034   0.00034  -0.00000   0.00034 ...
  -0.00516   0.00624   2.10347  -0.00002  -0.00002  -0.01646  -0.00001  -0.00002   0.00481   0.00479  -0.00139   0.00015 ...
  -0.00515   0.00623  -0.00002   2.10347  -0.00002  -0.00001  -0.01646  -0.00001   0.00015   0.00479   0.00274   0.00481 ...
  -0.00517   0.00626  -0.00002  -0.00002   2.10347  -0.00002  -0.00001  -0.01646   0.00481   0.00015  -0.00139   0.00479 ...
   0.00047  -0.00034  -0.01646  -0.00001  -0.00002   0.00140   0.00000   0.00000  -0.00030  -0.00030   0.00009   0.00001 ...
   0.00047  -0.00033  -0.00001  -0.01646  -0.00001   0.00000   0.00140   0.00000   0.00001  -0.00030  -0.00018  -0.00030 ...
   0.00047  -0.00034  -0.00002  -0.00001  -0.01646   0.00000   0.00000   0.00140  -0.00030   0.00001   0.00009  -0.00030 ...
   0.00028   0.00034   0.00481   0.00015   0.00481  -0.00030   0.00001  -0.00030   0.08599  -0.00056  -0.00017  -0.00056 ...
   0.00028   0.00034   0.00479   0.00479   0.00015  -0.00030  -0.00030   0.00001  -0.00056   0.08600   0.00002  -0.00056 ...
  -0.00000  -0.00000  -0.00139   0.00274  -0.00139   0.00009  -0.00018   0.00009  -0.00017   0.00002   0.05969   0.00002 ...
   0.00028   0.00034   0.00015   0.00481   0.00479   0.00001  -0.00030  -0.00030  -0.00056  -0.00056   0.00002   0.08599 ...
   ...  only 12  components have been written...
 
 Total charge density [el/Bohr^3]
      Maximum=    1.3500E+00  at reduced coord.    0.5000    0.5000    0.5000
      Minimum=   -1.0371E-01  at reduced coord.    0.0000    0.0000    0.0000
   Integrated=    4.0000E+01
 ETOT  3  -133.52012206192     3.319E-02 7.199E-02 7.680E+00
 scprqt: <Vxc>= -4.3583028E-01 hartree
 
 Pulay update with  2 previous iterations:
 mixing of old trial potential: alpha(m:m-4)=  0.932      0.720E-01 -0.437E-02
{SCF_istep: 3 , Vnl|psi>: 284 , wall_time: '  0.65 [s] '} <<< TIME
 average electrostatic smooth potential [Ha] , [eV]      0.000000        0.000000
 
 ****** Psp strength Dij in Ha (atom      1) *****
   0.48628   0.07322   0.00016   0.00015   0.00016   0.00001   0.00001   0.00001   0.00000   0.00000  -0.00000   0.00000 ...
   0.07322   0.01046   0.00003   0.00003   0.00003   0.00002   0.00002   0.00002   0.00000   0.00000  -0.00000   0.00000 ...
   0.00016   0.00003  -0.15299   0.00001   0.00001  -0.00478   0.00000   0.00000   0.00004   0.00003  -0.00002  -0.00000 ...
   0.00015   0.00003   0.00001  -0.15299   0.00001   0.00000  -0.00478   0.00000  -0.00000   0.00004   0.00003   0.00004 ...
   0.00016   0.00003   0.00001   0.00001  -0.15299   0.00000   0.00000  -0.00478   0.00004  -0.00000  -0.00002   0.00003 ...
   0.00001   0.00002  -0.00478   0.00000   0.00000  -1.12958   0.00000   0.00000   0.00003   0.00003  -0.00001  -0.00000 ...
   0.00001   0.00002   0.00000  -0.00478   0.00000   0.00000  -1.12958   0.00000  -0.00000   0.00003   0.00002   0.00003 ...
   0.00001   0.00002   0.00000   0.00000  -0.00478   0.00000   0.00000  -1.12958   0.00003  -0.00000  -0.00001   0.00003 ...
   0.00000   0.00000   0.00004  -0.00000   0.00004   0.00003  -0.00000   0.00003  -0.02901   0.00000  -0.00000   0.00000 ...
   0.00000   0.00000   0.00003   0.00004  -0.00000   0.00003   0.00003  -0.00000   0.00000  -0.02901   0.00000   0.00000 ...
  -0.00000  -0.00000  -0.00002   0.00003  -0.00002  -0.00001   0.00002  -0.00001  -0.00000   0.00000  -0.02902   0.00000 ...
   0.00000   0.00000  -0.00000   0.00004   0.00003  -0.00000   0.00003   0.00003   0.00000   0.00000   0.00000  -0.02901 ...
   ...  only 12  components have been written...
 
 
 ITER STEP NUMBER     4
 
 PAW TEST:
 ========= Values of RHOIJ before symetrization =========
 
 Atom #  1
   2.07191  -0.08888  -0.00553  -0.00613  -0.00575   0.00052   0.00060   0.00052   0.00262  -0.00847  -0.01943   0.00562 ...
  -0.08888   0.08735   0.00731   0.00798   0.00761  -0.00028  -0.00037  -0.00030  -0.00223   0.00845   0.01807  -0.00491 ...
  -0.00553   0.00731   2.05149  -0.01305   0.00268  -0.00837   0.00156  -0.00032   0.00711   0.00730  -0.00130   0.00198 ...
  -0.00613   0.00798  -0.01305   2.07192   0.01019   0.00156  -0.00700  -0.00124   0.00035   0.00366   0.00234   0.00386 ...
  -0.00575   0.00761   0.00268   0.01019   2.05073  -0.00033  -0.00125  -0.00834   0.00463  -0.00248  -0.00318   0.00520 ...
   0.00052  -0.00028  -0.00837   0.00156  -0.00033   0.00135  -0.00016   0.00003  -0.00036  -0.00040   0.00004  -0.00017 ...
   0.00060  -0.00037   0.00156  -0.00700  -0.00125  -0.00016   0.00095   0.00012  -0.00001  -0.00011  -0.00006  -0.00014 ...
   0.00052  -0.00030  -0.00032  -0.00124  -0.00834   0.00003   0.00012   0.00135  -0.00016   0.00021   0.00021  -0.00023 ...
   0.00262  -0.00223   0.00711   0.00035   0.00463  -0.00036  -0.00001  -0.00016   0.07365   0.00308   0.00326  -0.00523 ...
  -0.00847   0.00845   0.00730   0.00366  -0.00248  -0.00040  -0.00011   0.00021   0.00308   0.08271   0.00610   0.00054 ...
  -0.01943   0.01807  -0.00130   0.00234  -0.00318   0.00004  -0.00006   0.00021   0.00326   0.00610   0.06923  -0.00417 ...
   0.00562  -0.00491   0.00198   0.00386   0.00520  -0.00017  -0.00014  -0.00023  -0.00523   0.00054  -0.00417   0.08299 ...
   ...  only 12  components have been written...
 
 
 PAW TEST:
 ========= Values of RHOIJ after symetrization =========
 
 Atom #  1
   2.07191  -0.08888  -0.00581  -0.00579  -0.00582   0.00054   0.00054   0.00054  -0.00004  -0.00004   0.00000  -0.00004 ...
  -0.08888   0.08735   0.00763   0.00761   0.00765  -0.00032  -0.00031  -0.00032   0.00040   0.00040  -0.00000   0.00040 ...
  -0.00581   0.00763   2.05805  -0.00007  -0.00007  -0.00790  -0.00001  -0.00001   0.00530   0.00529  -0.00143  -0.00005 ...
  -0.00579   0.00761  -0.00007   2.05805  -0.00007  -0.00001  -0.00790  -0.00001  -0.00005   0.00529   0.00282   0.00530 ...
  -0.00582   0.00765  -0.00007  -0.00007   2.05805  -0.00001  -0.00001  -0.00790   0.00530  -0.00005  -0.00143   0.00529 ...
   0.00054  -0.00032  -0.00790  -0.00001  -0.00001   0.00122   0.00000   0.00000  -0.00023  -0.00023   0.00005   0.00001 ...
   0.00054  -0.00031  -0.00001  -0.00790  -0.00001   0.00000   0.00122   0.00000   0.00001  -0.00023  -0.00010  -0.00023 ...
   0.00054  -0.00032  -0.00001  -0.00001  -0.00790   0.00000   0.00000   0.00122  -0.00023   0.00001   0.00005  -0.00023 ...
  -0.00004   0.00040   0.00530  -0.00005   0.00530  -0.00023   0.00001  -0.00023   0.07978  -0.00058  -0.00016  -0.00058 ...
  -0.00004   0.00040   0.00529   0.00529  -0.00005  -0.00023  -0.00023   0.00001  -0.00058   0.07979   0.00002  -0.00057 ...
   0.00000  -0.00000  -0.00143   0.00282  -0.00143   0.00005  -0.00010   0.00005  -0.00016   0.00002   0.05420   0.00002 ...
  -0.00004   0.00040  -0.00005   0.00530   0.00529   0.00001  -0.00023  -0.00023  -0.00058  -0.00057   0.00002   0.07978 ...
   ...  only 12  components have been written...
 
 Total charge density [el/Bohr^3]
      Maximum=    1.4393E+00  at reduced coord.    0.5000    0.5000    0.5000
      Minimum=   -9.8955E-02  at reduced coord.    0.0000    0.0000    0.0000
   Integrated=    4.0000E+01
 ETOT  4  -133.51885853302     1.264E-03 4.383E-02 1.043E+01
 scprqt: <Vxc>= -4.3468036E-01 hartree
 
 Pulay update with  3 previous iterations:
 mixing of old trial potential: alpha(m:m-4)=  0.794      0.468     -0.265      0.363E-02
{SCF_istep: 4 , Vnl|psi>: 284 , wall_time: '  0.65 [s] '} <<< TIME
 average electrostatic smooth potential [Ha] , [eV]      0.000000        0.000000
 
 ****** Psp strength Dij in Ha (atom      1) *****
   0.48338   0.07288   0.00020   0.00020   0.00020  -0.00000  -0.00000  -0.00000   0.00000   0.00000  -0.00000   0.00000 ...
   0.07288   0.01041   0.00004   0.00004   0.00004   0.00002   0.00002   0.00002   0.00000   0.00000  -0.00000   0.00000 ...
   0.00020   0.00004  -0.15358   0.00000   0.00000  -0.00439   0.00000   0.00000   0.00004   0.00004  -0.00002   0.00000 ...
   0.00020   0.00004   0.00000  -0.15358   0.00000   0.00000  -0.00439   0.00000   0.00000   0.00004   0.00004   0.00004 ...
   0.00020   0.00004   0.00000   0.00000  -0.15358   0.00000   0.00000  -0.00439   0.00004   0.00000  -0.00002   0.00004 ...
  -0.00000   0.00002  -0.00439   0.00000   0.00000  -1.13010   0.00000   0.00000   0.00003   0.00003  -0.00001   0.00000 ...
  -0.00000   0.00002   0.00000  -0.00439   0.00000   0.00000  -1.13010   0.00000   0.00000   0.00003   0.00002   0.00003 ...
  -0.00000   0.00002   0.00000   0.00000  -0.00439   0.00000   0.00000  -1.13010   0.00003   0.00000  -0.00001   0.00003 ...
   0.00000   0.00000   0.00004   0.00000   0.00004   0.00003   0.00000   0.00003  -0.02900   0.00000  -0.00000   0.00000 ...
   0.00000   0.00000   0.00004   0.00004   0.00000   0.00003   0.00003   0.00000   0.00000  -0.02900   0.00000   0.00000 ...
  -0.00000  -0.00000  -0.00002   0.00004  -0.00002  -0.00001   0.00002  -0.00001  -0.00000   0.00000  -0.02901   0.00000 ...
   0.00000   0.00000   0.00000   0.00004   0.00004   0.00000   0.00003   0.00003   0.00000   0.00000   0.00000  -0.02900 ...
   ...  only 12  components have been written...
 
 
 ITER STEP NUMBER     5
 
 PAW TEST:
 ========= Values of RHOIJ before symetrization =========
 
 Atom #  1
   2.06593  -0.07862  -0.00474  -0.00543  -0.00507   0.00038   0.00047   0.00040   0.00247  -0.00887  -0.02018   0.00593 ...
  -0.07862   0.08802   0.00580   0.00664   0.00632  -0.00027  -0.00036  -0.00029  -0.00222   0.00835   0.01850  -0.00499 ...
  -0.00474   0.00580   2.05175  -0.01396   0.00284  -0.00819   0.00164  -0.00035   0.00781   0.00762  -0.00206   0.00198 ...
  -0.00543   0.00664  -0.01396   2.07154   0.01082   0.00165  -0.00661  -0.00130   0.00043   0.00489   0.00359   0.00534 ...
  -0.00507   0.00632   0.00284   0.01082   2.05127  -0.00036  -0.00128  -0.00817   0.00583  -0.00246  -0.00363   0.00609 ...
   0.00038  -0.00027  -0.00819   0.00165  -0.00036   0.00139  -0.00015   0.00004  -0.00038  -0.00040   0.00009  -0.00016 ...
   0.00047  -0.00036   0.00164  -0.00661  -0.00128  -0.00015   0.00096   0.00012  -0.00002  -0.00017  -0.00011  -0.00022 ...
   0.00040  -0.00029  -0.00035  -0.00130  -0.00817   0.00004   0.00012   0.00139  -0.00020   0.00020   0.00022  -0.00027 ...
   0.00247  -0.00222   0.00781   0.00043   0.00583  -0.00038  -0.00002  -0.00020   0.07549   0.00315   0.00336  -0.00509 ...
  -0.00887   0.00835   0.00762   0.00489  -0.00246  -0.00040  -0.00017   0.00020   0.00315   0.08398   0.00613   0.00042 ...
  -0.02018   0.01850  -0.00206   0.00359  -0.00363   0.00009  -0.00011   0.00022   0.00336   0.00613   0.07122  -0.00436 ...
   0.00593  -0.00499   0.00198   0.00534   0.00609  -0.00016  -0.00022  -0.00027  -0.00509   0.00042  -0.00436   0.08446 ...
   ...  only 12  components have been written...
 
 
 PAW TEST:
 ========= Values of RHOIJ after symetrization =========
 
 Atom #  1
   2.06593  -0.07862  -0.00508  -0.00507  -0.00509   0.00042   0.00042   0.00042  -0.00011  -0.00011   0.00000  -0.00011 ...
  -0.07862   0.08802   0.00625   0.00624   0.00627  -0.00031  -0.00031  -0.00031   0.00034   0.00034  -0.00000   0.00034 ...
  -0.00508   0.00625   2.05819  -0.00010  -0.00011  -0.00766  -0.00000  -0.00000   0.00627   0.00626  -0.00192  -0.00001 ...
  -0.00507   0.00624  -0.00010   2.05819  -0.00011  -0.00000  -0.00766  -0.00000  -0.00001   0.00626   0.00381   0.00627 ...
  -0.00509   0.00627  -0.00011  -0.00011   2.05819  -0.00000  -0.00000  -0.00766   0.00627  -0.00001  -0.00193   0.00625 ...
   0.00042  -0.00031  -0.00766  -0.00000  -0.00000   0.00124   0.00000   0.00000  -0.00027  -0.00027   0.00007   0.00001 ...
   0.00042  -0.00031  -0.00000  -0.00766  -0.00000   0.00000   0.00124   0.00000   0.00001  -0.00027  -0.00014  -0.00027 ...
   0.00042  -0.00031  -0.00000  -0.00000  -0.00766   0.00000   0.00000   0.00124  -0.00027   0.00001   0.00007  -0.00027 ...
  -0.00011   0.00034   0.00627  -0.00001   0.00627  -0.00027   0.00001  -0.00027   0.08131  -0.00055  -0.00015  -0.00055 ...
  -0.00011   0.00034   0.00626   0.00626  -0.00001  -0.00027  -0.00027   0.00001  -0.00055   0.08132   0.00002  -0.00055 ...
   0.00000  -0.00000  -0.00192   0.00381  -0.00193   0.00007  -0.00014   0.00007  -0.00015   0.00002   0.05553   0.00002 ...
  -0.00011   0.00034  -0.00001   0.00627   0.00625   0.00001  -0.00027  -0.00027  -0.00055  -0.00055   0.00002   0.08131 ...
   ...  only 12  components have been written...
 
 Total charge density [el/Bohr^3]
      Maximum=    1.3817E+00  at reduced coord.    0.5000    0.5000    0.5000
      Minimum=   -9.9679E-02  at reduced coord.    0.0000    0.0000    0.0000
   Integrated=    4.0000E+01
 ETOT  5  -133.51301741054     5.841E-03 5.917E-03 2.596E-01
 scprqt: <Vxc>= -4.3411400E-01 hartree
 
 Pulay update with  4 previous iterations:
 mixing of old trial potential: alpha(m:m-4)=  0.876      0.232      0.223E-01 -0.120     -0.108E-01
{SCF_istep: 5 , Vnl|psi>: 280 , wall_time: '  0.65 [s] '} <<< TIME
[...]
  5.75E-05 8.67E-05 1.23E-04 6.74E-05 1.86E-05 1.15E-04 1.52E-04 1.16E-04
  5.75E-05 3.33E-04 2.50E-04 1.30E-04
   0.1875  0.0625  0.0625    1  7.08166E-03 kpt; spin; max resid(k); each band:
  9.22E-04 5.31E-03 7.08E-03 7.02E-03 1.48E-05 1.15E-04 6.14E-04 3.68E-04
  2.13E-04 1.58E-04 2.39E-04 6.15E-05 8.27E-05 1.18E-04 1.48E-04 1.64E-04
  1.34E-04 3.02E-04 2.45E-04 2.06E-04
   0.3125  0.0625  0.0625    1  7.05892E-03 kpt; spin; max resid(k); each band:
  8.86E-04 5.34E-03 7.00E-03 7.06E-03 1.71E-05 1.40E-04 6.01E-04 3.29E-04
  2.55E-04 3.25E-04 4.11E-04 4.19E-05 7.99E-05 1.20E-04 2.36E-04 1.70E-04
  2.20E-04 2.68E-04 2.45E-04 2.16E-04
   0.4375  0.0625  0.0625    1  7.16222E-03 kpt; spin; max resid(k); each band:
  8.61E-04 5.96E-03 7.16E-03 7.07E-03 1.91E-05 1.45E-04 5.78E-04 3.33E-04
  3.18E-04 3.86E-04 5.27E-04 2.66E-05 7.26E-05 1.02E-04 2.78E-04 1.93E-04
  2.70E-04 2.70E-04 2.36E-04 1.79E-04
  -0.4375  0.0625  0.0625    1  7.16995E-03 kpt; spin; max resid(k); each band:
  8.42E-04 5.83E-03 7.17E-03 7.09E-03 1.84E-05 1.45E-04 5.70E-04 3.29E-04
  3.00E-04 3.61E-04 5.16E-04 2.73E-05 9.42E-05 9.52E-05 2.39E-04 1.90E-04
  2.70E-04 2.74E-04 2.29E-04 1.75E-04
  -0.3125  0.0625  0.0625    1  7.07657E-03 kpt; spin; max resid(k); each band:
  8.70E-04 5.27E-03 7.03E-03 7.08E-03 1.68E-05 1.37E-04 5.80E-04 3.19E-04
  2.45E-04 3.01E-04 4.02E-04 4.38E-05 1.01E-04 1.03E-04 1.63E-04 1.86E-04
  2.23E-04 2.70E-04 2.32E-04 1.99E-04
  -0.1875  0.0625  0.0625    1  7.25747E-03 kpt; spin; max resid(k); each band:
  8.91E-04 5.45E-03 7.20E-03 7.26E-03 1.51E-05 1.16E-04 5.91E-04 3.57E-04
  2.03E-04 1.62E-04 2.39E-04 5.90E-05 9.81E-05 1.01E-04 1.39E-04 1.44E-04
  1.46E-04 2.81E-04 2.13E-04 1.68E-04
  -0.0625  0.0625  0.0625    1  7.87720E-03 kpt; spin; max resid(k); each band:
  9.41E-04 6.83E-03 7.88E-03 7.37E-03 1.35E-05 1.06E-04 4.03E-04 6.31E-04
  6.81E-05 7.73E-05 1.25E-04 6.13E-05 5.20E-05 8.42E-05 1.41E-04 1.13E-04
  6.91E-05 3.21E-04 2.17E-04 1.01E-04
   0.0625  0.1875  0.0625    1  7.08166E-03 kpt; spin; max resid(k); each band:
  9.22E-04 5.31E-03 7.08E-03 7.02E-03 1.48E-05 1.15E-04 6.14E-04 3.68E-04
  2.13E-04 1.58E-04 2.39E-04 6.15E-05 8.27E-05 1.18E-04 1.48E-04 1.64E-04
  1.34E-04 3.02E-04 2.45E-04 2.06E-04
   0.1875  0.1875  0.0625    1  8.65663E-03 kpt; spin; max resid(k); each band:
  9.12E-04 5.44E-03 5.38E-03 8.66E-03 1.59E-05 1.57E-04 2.77E-04 6.53E-04
  3.25E-04 2.79E-04 2.72E-04 1.03E-04 3.53E-05 1.57E-04 5.98E-05 2.46E-04
  3.51E-04 1.90E-04 3.88E-04 5.77E-05
   0.3125  0.1875  0.0625    1  8.42144E-03 kpt; spin; max resid(k); each band:
  8.67E-04 5.47E-03 5.59E-03 8.42E-03 1.65E-05 1.97E-04 4.46E-04 4.20E-04
  3.55E-04 4.35E-04 4.25E-04 5.86E-05 7.28E-05 4.02E-05 1.80E-04 2.66E-04
  3.28E-04 2.73E-04 3.07E-04 5.00E-05
   0.4375  0.1875  0.0625    1  8.59090E-03 kpt; spin; max resid(k); each band:
  8.35E-04 5.81E-03 5.94E-03 8.59E-03 1.57E-05 2.08E-04 5.36E-04 3.14E-04
  3.03E-04 5.79E-04 5.60E-04 2.50E-05 9.19E-05 3.00E-05 1.59E-04 2.95E-04
  3.49E-04 2.98E-04 2.10E-04 3.68E-05
  -0.4375  0.1875  0.0625    1  8.42720E-03 kpt; spin; max resid(k); each band:
  8.38E-04 5.90E-03 5.89E-03 8.43E-03 1.54E-05 2.08E-04 5.30E-04 3.14E-04
  3.01E-04 5.68E-04 5.56E-04 2.75E-05 8.65E-05 5.30E-05 1.33E-04 2.99E-04
  3.62E-04 2.67E-04 2.21E-04 3.86E-05
  -0.3125  0.1875  0.0625    1  8.30406E-03 kpt; spin; max resid(k); each band:
  8.62E-04 5.67E-03 5.69E-03 8.30E-03 1.61E-05 1.99E-04 4.34E-04 4.14E-04
  3.51E-04 4.14E-04 4.16E-04 6.12E-05 6.12E-05 1.16E-04 9.87E-05 2.62E-04
  3.11E-04 2.44E-04 2.92E-04 5.43E-05
  -0.1875  0.1875  0.0625    1  8.31812E-03 kpt; spin; max resid(k); each band:
  9.12E-04 5.27E-03 5.52E-03 8.32E-03 1.59E-05 1.53E-04 2.75E-04 6.48E-04
  3.12E-04 2.76E-04 2.53E-04 9.98E-05 2.80E-05 1.80E-04 3.93E-05 2.28E-04
  3.11E-04 2.13E-04 2.95E-04 5.66E-05
  -0.0625  0.1875  0.0625    1  7.29840E-03 kpt; spin; max resid(k); each band:
  9.21E-04 5.33E-03 7.30E-03 6.96E-03 1.49E-05 1.17E-04 6.10E-04 3.72E-04
  1.91E-04 1.82E-04 2.30E-04 6.01E-05 5.41E-05 1.36E-04 1.80E-04 1.24E-04
  1.36E-04 2.97E-04 2.64E-04 1.02E-04
   0.0625  0.3125  0.0625    1  7.05892E-03 kpt; spin; max resid(k); each band:
  8.86E-04 5.34E-03 7.00E-03 7.06E-03 1.71E-05 1.40E-04 6.01E-04 3.29E-04
  2.55E-04 3.25E-04 4.11E-04 4.19E-05 7.99E-05 1.20E-04 2.36E-04 1.70E-04
  2.20E-04 2.68E-04 2.45E-04 2.16E-04
   0.1875  0.3125  0.0625    1  8.42144E-03 kpt; spin; max resid(k); each band:
  8.67E-04 5.47E-03 5.59E-03 8.42E-03 1.65E-05 1.97E-04 4.46E-04 4.20E-04
  3.55E-04 4.35E-04 4.25E-04 5.86E-05 7.28E-05 4.02E-05 1.80E-04 2.66E-04
  3.28E-04 2.73E-04 3.07E-04 5.00E-05
   0.3125  0.3125  0.0625    1  8.06427E-03 kpt; spin; max resid(k); each band:
  8.06E-04 5.07E-03 5.44E-03 8.06E-03 1.30E-05 2.56E-04 2.52E-04 4.98E-04
  5.27E-04 3.75E-04 5.80E-04 5.34E-05 3.19E-05 1.98E-05 2.22E-04 2.66E-04
  2.59E-04 2.97E-04 2.13E-04 2.23E-05
   0.4375  0.3125  0.0625    1  7.63352E-03 kpt; spin; max resid(k); each band:
  8.44E-04 5.48E-03 5.25E-03 7.63E-03 1.06E-05 3.00E-04 3.71E-04 3.26E-04
  5.06E-04 5.54E-04 6.19E-04 2.25E-05 5.15E-05 1.31E-05 2.05E-04 2.96E-04
  2.30E-04 2.55E-04 1.90E-04 2.02E-05
  -0.4375  0.3125  0.0625    1  7.91105E-03 kpt; spin; max resid(k); each band:
  8.47E-04 5.67E-03 5.27E-03 7.91E-03 1.08E-05 3.03E-04 3.71E-04 3.31E-04
  5.00E-04 5.61E-04 6.39E-04 2.49E-05 4.52E-05 1.81E-05 2.12E-04 2.95E-04
  2.34E-04 2.34E-04 1.97E-04 2.04E-05
  -0.3125  0.3125  0.0625    1  8.28756E-03 kpt; spin; max resid(k); each band:
  8.12E-04 5.69E-03 5.27E-03 8.29E-03 1.31E-05 2.62E-04 2.51E-04 5.04E-04
  5.11E-04 3.87E-04 5.72E-04 5.96E-05 2.05E-05 3.32E-05 2.21E-04 2.43E-04
  2.64E-04 2.52E-04 2.05E-04 2.39E-05
  -0.1875  0.3125  0.0625    1  8.26771E-03 kpt; spin; max resid(k); each band:
  8.78E-04 5.43E-03 5.72E-03 8.27E-03 1.63E-05 2.00E-04 4.34E-04 4.23E-04
  3.54E-04 4.21E-04 3.97E-04 5.87E-05 5.85E-05 9.97E-05 1.30E-04 2.46E-04
  3.12E-04 2.88E-04 2.15E-04 4.12E-05
  -0.0625  0.3125  0.0625    1  7.11290E-03 kpt; spin; max resid(k); each band:
  8.73E-04 5.34E-03 7.06E-03 7.11E-03 1.70E-05 1.36E-04 5.88E-04 3.32E-04
  2.46E-04 3.22E-04 3.91E-04 4.07E-05 6.24E-05 1.22E-04 3.17E-04 8.45E-05
  1.61E-04 3.30E-04 2.90E-04 9.09E-05
   0.0625  0.4375  0.0625    1  7.16222E-03 kpt; spin; max resid(k); each band:
  8.61E-04 5.96E-03 7.16E-03 7.07E-03 1.91E-05 1.45E-04 5.78E-04 3.33E-04
  3.18E-04 3.86E-04 5.27E-04 2.66E-05 7.26E-05 1.02E-04 2.78E-04 1.93E-04
  2.70E-04 2.70E-04 2.36E-04 1.79E-04
   0.1875  0.4375  0.0625    1  8.59090E-03 kpt; spin; max resid(k); each band:
  8.35E-04 5.81E-03 5.94E-03 8.59E-03 1.57E-05 2.08E-04 5.36E-04 3.14E-04
  3.03E-04 5.79E-04 5.60E-04 2.50E-05 9.19E-05 3.00E-05 1.59E-04 2.95E-04
  3.49E-04 2.98E-04 2.10E-04 3.68E-05
   0.3125  0.4375  0.0625    1  7.63352E-03 kpt; spin; max resid(k); each band:
  8.44E-04 5.48E-03 5.25E-03 7.63E-03 1.06E-05 3.00E-04 3.71E-04 3.26E-04
  5.06E-04 5.54E-04 6.19E-04 2.25E-05 5.15E-05 1.31E-05 2.05E-04 2.96E-04
  2.30E-04 2.55E-04 1.90E-04 2.02E-05
   0.4375  0.4375  0.0625    1  7.16724E-03 kpt; spin; max resid(k); each band:
  8.07E-04 5.36E-03 5.51E-03 7.17E-03 7.49E-06 4.14E-04 2.43E-04 3.05E-04
  6.45E-04 5.99E-04 6.13E-04 2.49E-05 3.25E-05 4.44E-06 2.57E-04 2.62E-04
  1.86E-04 1.88E-04 1.72E-04 1.66E-05
  -0.4375  0.4375  0.0625    1  7.10395E-03 kpt; spin; max resid(k); each band:
  8.17E-04 5.63E-03 5.61E-03 7.10E-03 7.60E-06 4.20E-04 2.46E-04 3.10E-04
  6.27E-04 6.24E-04 6.17E-04 2.68E-05 2.69E-05 7.52E-06 2.61E-04 2.52E-04
  1.77E-04 1.78E-04 1.75E-04 1.69E-05
  -0.3125  0.4375  0.0625    1  7.76776E-03 kpt; spin; max resid(k); each band:
  8.54E-04 5.54E-03 5.47E-03 7.77E-03 1.06E-05 3.06E-04 3.66E-04 3.36E-04
  5.12E-04 5.45E-04 6.38E-04 2.47E-05 4.70E-05 1.75E-05 2.10E-04 2.96E-04
  2.18E-04 2.49E-04 1.58E-04 2.07E-05
  -0.1875  0.4375  0.0625    1  8.36105E-03 kpt; spin; max resid(k); each band:
  8.58E-04 5.73E-03 5.90E-03 8.36E-03 1.54E-05 2.10E-04 5.39E-04 3.11E-04
  3.08E-04 5.69E-04 5.38E-04 2.61E-05 8.67E-05 2.83E-05 1.53E-04 2.90E-04
  3.30E-04 3.30E-04 1.05E-04 3.47E-05
  -0.0625  0.4375  0.0625    1  7.24671E-03 kpt; spin; max resid(k); each band:
  8.82E-04 6.08E-03 7.13E-03 7.25E-03 1.95E-05 1.45E-04 5.79E-04 3.40E-04
  3.17E-04 3.76E-04 5.22E-04 2.70E-05 5.48E-05 1.08E-04 2.84E-04 1.80E-04
  2.43E-04 3.05E-04 2.79E-04 6.22E-05
   0.0625 -0.4375  0.0625    1  7.16995E-03 kpt; spin; max resid(k); each band:
  8.42E-04 5.83E-03 7.17E-03 7.09E-03 1.84E-05 1.45E-04 5.70E-04 3.29E-04
  3.00E-04 3.61E-04 5.16E-04 2.73E-05 9.42E-05 9.52E-05 2.39E-04 1.90E-04
  2.70E-04 2.74E-04 2.29E-04 1.75E-04
   0.1875 -0.4375  0.0625    1  8.42720E-03 kpt; spin; max resid(k); each band:
  8.38E-04 5.90E-03 5.89E-03 8.43E-03 1.54E-05 2.08E-04 5.30E-04 3.14E-04
  3.01E-04 5.68E-04 5.56E-04 2.75E-05 8.65E-05 5.30E-05 1.33E-04 2.99E-04
  3.62E-04 2.67E-04 2.21E-04 3.86E-05
   0.3125 -0.4375  0.0625    1  7.91105E-03 kpt; spin; max resid(k); each band:
  8.47E-04 5.67E-03 5.27E-03 7.91E-03 1.08E-05 3.03E-04 3.71E-04 3.31E-04
  5.00E-04 5.61E-04 6.39E-04 2.49E-05 4.52E-05 1.81E-05 2.12E-04 2.95E-04
  2.34E-04 2.34E-04 1.97E-04 2.04E-05
   0.4375 -0.4375  0.0625    1  7.10395E-03 kpt; spin; max resid(k); each band:
  8.17E-04 5.63E-03 5.61E-03 7.10E-03 7.60E-06 4.20E-04 2.46E-04 3.10E-04
  6.27E-04 6.24E-04 6.17E-04 2.68E-05 2.69E-05 7.52E-06 2.61E-04 2.52E-04
  1.77E-04 1.78E-04 1.75E-04 1.69E-05
  -0.4375 -0.4375  0.0625    1  7.29225E-03 kpt; spin; max resid(k); each band:
  8.45E-04 5.56E-03 6.01E-03 7.29E-03 7.96E-06 4.35E-04 2.47E-04 3.20E-04
  6.53E-04 6.13E-04 6.18E-04 2.50E-05 3.22E-05 3.44E-06 2.57E-04 2.67E-04
  1.69E-04 1.66E-04 1.73E-04 1.68E-05
  -0.3125 -0.4375  0.0625    1  7.67788E-03 kpt; spin; max resid(k); each band:
  8.63E-04 5.62E-03 5.38E-03 7.68E-03 1.08E-05 3.04E-04 3.76E-04 3.24E-04
  5.02E-04 5.54E-04 6.36E-04 2.23E-05 5.30E-05 1.09E-05 2.00E-04 3.01E-04
  2.19E-04 2.22E-04 1.64E-04 2.01E-05
  -0.1875 -0.4375  0.0625    1  8.73045E-03 kpt; spin; max resid(k); each band:
  8.60E-04 5.82E-03 5.89E-03 8.73E-03 1.55E-05 2.12E-04 5.40E-04 3.12E-04
  3.06E-04 5.83E-04 5.55E-04 2.55E-05 9.45E-05 2.52E-05 1.40E-04 2.96E-04
  3.56E-04 3.07E-04 1.03E-04 3.51E-05
  -0.0625 -0.4375  0.0625    1  7.21187E-03 kpt; spin; max resid(k); each band:
  8.77E-04 5.77E-03 7.21E-03 7.14E-03 1.81E-05 1.45E-04 5.71E-04 3.25E-04
  3.20E-04 3.71E-04 5.20E-04 2.69E-05 8.01E-05 9.06E-05 2.35E-04 2.03E-04
  2.99E-04 2.54E-04 2.72E-04 6.37E-05
   0.0625 -0.3125  0.0625    1  7.07657E-03 kpt; spin; max resid(k); each band:
  8.70E-04 5.27E-03 7.03E-03 7.08E-03 1.68E-05 1.37E-04 5.80E-04 3.19E-04
  2.45E-04 3.01E-04 4.02E-04 4.38E-05 1.01E-04 1.03E-04 1.63E-04 1.86E-04
  2.23E-04 2.70E-04 2.32E-04 1.99E-04
   0.1875 -0.3125  0.0625    1  8.30406E-03 kpt; spin; max resid(k); each band:
  8.62E-04 5.67E-03 5.69E-03 8.30E-03 1.61E-05 1.99E-04 4.34E-04 4.14E-04
  3.51E-04 4.14E-04 4.16E-04 6.12E-05 6.12E-05 1.16E-04 9.87E-05 2.62E-04
  3.11E-04 2.44E-04 2.92E-04 5.43E-05
   0.3125 -0.3125  0.0625    1  8.28756E-03 kpt; spin; max resid(k); each band:
  8.12E-04 5.69E-03 5.27E-03 8.29E-03 1.31E-05 2.62E-04 2.51E-04 5.04E-04
  5.11E-04 3.87E-04 5.72E-04 5.96E-05 2.05E-05 3.32E-05 2.21E-04 2.43E-04
  2.64E-04 2.52E-04 2.05E-04 2.39E-05
   0.4375 -0.3125  0.0625    1  7.76776E-03 kpt; spin; max resid(k); each band:
  8.54E-04 5.54E-03 5.47E-03 7.77E-03 1.06E-05 3.06E-04 3.66E-04 3.36E-04
  5.12E-04 5.45E-04 6.38E-04 2.47E-05 4.70E-05 1.75E-05 2.10E-04 2.96E-04
  2.18E-04 2.49E-04 1.58E-04 2.07E-05
  -0.4375 -0.3125  0.0625    1  7.67788E-03 kpt; spin; max resid(k); each band:
  8.63E-04 5.62E-03 5.38E-03 7.68E-03 1.08E-05 3.04E-04 3.76E-04 3.24E-04
  5.02E-04 5.54E-04 6.36E-04 2.23E-05 5.30E-05 1.09E-05 2.00E-04 3.01E-04
  2.19E-04 2.22E-04 1.64E-04 2.01E-05
  -0.3125 -0.3125  0.0625    1  8.29508E-03 kpt; spin; max resid(k); each band:
  8.23E-04 5.28E-03 5.96E-03 8.30E-03 1.34E-05 2.69E-04 2.51E-04 5.05E-04
  5.20E-04 3.95E-04 5.75E-04 5.44E-05 3.75E-05 1.51E-05 2.08E-04 2.73E-04
  2.64E-04 2.02E-04 2.03E-04 2.23E-05
  -0.1875 -0.3125  0.0625    1  8.40008E-03 kpt; spin; max resid(k); each band:
  8.72E-04 5.46E-03 5.63E-03 8.40E-03 1.56E-05 1.97E-04 4.45E-04 4.13E-04
  3.56E-04 4.29E-04 4.16E-04 5.87E-05 7.37E-05 3.87E-05 1.48E-04 2.67E-04
  3.23E-04 2.48E-04 1.93E-04 4.17E-05
  -0.0625 -0.3125  0.0625    1  7.14209E-03 kpt; spin; max resid(k); each band:
  8.78E-04 5.30E-03 7.11E-03 7.14E-03 1.67E-05 1.33E-04 5.80E-04 3.21E-04
  2.65E-04 2.95E-04 4.04E-04 4.25E-05 1.28E-04 5.80E-05 1.19E-04 2.42E-04
  2.93E-04 2.04E-04 2.53E-04 1.03E-04
   0.0625 -0.1875  0.0625    1  7.25747E-03 kpt; spin; max resid(k); each band:
  8.91E-04 5.45E-03 7.20E-03 7.26E-03 1.51E-05 1.16E-04 5.91E-04 3.57E-04
  2.03E-04 1.62E-04 2.39E-04 5.90E-05 9.81E-05 1.01E-04 1.39E-04 1.44E-04
  1.46E-04 2.81E-04 2.13E-04 1.68E-04
   0.1875 -0.1875  0.0625    1  8.31812E-03 kpt; spin; max resid(k); each band:
  9.12E-04 5.27E-03 5.52E-03 8.32E-03 1.59E-05 1.53E-04 2.75E-04 6.48E-04
  3.12E-04 2.76E-04 2.53E-04 9.98E-05 2.80E-05 1.80E-04 3.93E-05 2.28E-04
  3.11E-04 2.13E-04 2.95E-04 5.66E-05
 outwf : prtvol=0 or 1, do not print more k-points.
 
 FILE_OPEN completed. cpu:  0.01 [s] , wall:  0.01 [s] <<< TIME
 write_frmarkers completed. cpu:  0.21 [s] , wall:  0.21 [s] <<< TIME
 MY_KPT_BANDS part of WFK written to file. completed. cpu:  0.95 [s] , wall:  1.26 [s] <<< TIME
- Creating HDf5 file with MPI-IO support: BTO_phononso_DS3_EVK.nc
 dfpt_looppert : ek2=    5.6417052071E+01
          f-sum rule ratio=    8.9597653940E-01 (note : ecutsm/=0)
 
 Nine components of 2nd-order total energy (hartree) are
 1,2,3: 0th-order hamiltonian combined with 1st-order wavefunctions
     kin0=   5.80052600E+01 eigvalue=   1.58144297E+00  local=  -3.08219269E+01
 4,5,6: 1st-order hamiltonian combined with 1st and 0th-order wfs
     kin1=  -5.05483551E+01  Hartree=   0.00000000E+00     xc=   0.00000000E+00
 7,8,9: eventually, occupation + non-local contributions
    edocc=   0.00000000E+00     enl0=  -9.97871947E-01   enl1=  -6.69211630E+00
 10: eventually, PAW "on-site" Hxc contribution: epaw1=   0.00000000E+00
 1-10 gives the relaxation energy (to be shifted if some occ is /=2.0)
   erelax=  -2.94735673E+01
 11 Contribution from 1st-order change of wavefunctions overlap
 eovl1 =  -8.53331582E-01
  No Ewald or frozen-wf contrib.: the relaxation energy is the total one
 2DEtotal=   -0.2947356727E+02 Ha. Also 2DEtotal=   -0.802016552755E+03 eV
    (  non-var. 2DEtotal :   -2.9473567272E+01 Ha)
================================================================================
 
 ---- first-order wavefunction calculations are completed ----
 
 
 respfn : d/dk was computed, but no 2DTE, so no DDB output.
 
================================================================================
== DATASET  4 ==================================================================
-   mpi_nproc: 32, omp_nthreads: 1 (-1 if OMP is not activated)
 
 
--- !COMMENT
src_file: m_xgScalapack.F90
src_line: 236
message: |
    xgScalapack in auto mode
...
 
 mkfilename : getwfk/=0, take file _WFK from output of DATASET   2.
 
 mkfilename : getddk/=0, take file _1WF from output of DATASET   3.
 
 
 getdim_nloc : deduce lmnmax  =  18, lnmax  =   6,
                      lmnmaxso=  18, lnmaxso=   6.
 Slater exchange
 P. A. M. Dirac, Math. Proc. Cambridge Philos. Soc. 26, 376 (1930)
 F. Bloch, Z. Phys. 57, 545 (1929)
 Perdew & Wang
 J. P. Perdew and Y. Wang, Phys. Rev. B 45, 13244 (1992)
 
 Unit cell volume ucvol=  4.1885186E+02 bohr^3
 Angles (23,13,12)=  8.99145424E+01  8.99145424E+01  8.99145424E+01 degrees
 
 Coarse grid specifications (used for wave-functions):
 
 getcut: wavevector=  0.0000  0.0000  0.0000  ngfft=  45  45  45
         ecut(hartree)=     38.588   => boxcut(ratio)=   2.10303
 
 Fine grid specifications (used for densities):
 
 getcut: wavevector=  0.0000  0.0000  0.0000  ngfft=  60  60  60
         ecut(hartree)=     66.150   => boxcut(ratio)=   2.19029
 
 respfn : eigen0 array
 symatm: atom number 1 is reached starting at atom
   1  1  1  1  1  1
 symatm: atom number 2 is reached starting at atom
   2  2  2  2  2  2
 symatm: atom number 3 is reached starting at atom
   3  3  4  5  5  4
 symatm: atom number 4 is reached starting at atom
   4  5  5  4  3  3
 symatm: atom number 5 is reached starting at atom
   5  4  3  3  4  5
 
 FFT (fine) grid used in SCF cycle:
 
 getcut: wavevector=  0.0000  0.0000  0.0000  ngfft=  60  60  60
         ecut(hartree)=     60.000   => boxcut(ratio)=   2.29980
 
 getcut : COMMENT -
  Note that boxcut > 2.2 ; recall that boxcut=Gcut(box)/Gcut(sphere) = 2
  is sufficient for exact treatment of convolution.
  Such a large boxcut is a waste : you could raise ecut
  e.g. ecut=   79.336479 Hartrees makes boxcut=2
 
 
--- !WARNING
src_file: m_paw_tools.F90
src_line: 245
message: |
    PAW SPHERES ARE OVERLAPPING!
       There are     3 pairs of overlapping atoms.
       The maximum overlap percentage is obtained for the atoms   2 and   5.
        | Distance between atoms   2 and   5 is  :   3.55870
        | PAW radius of the sphere around atom   2 is:   2.30000
        | PAW radius of the sphere around atom   5 is:   1.41465
        | This leads to a (voluminal) overlap ratio of  0.5545 %
    THIS IS DANGEROUS, as PAW formalism assumes non-overlapping PAW spheres.
...
 
       Overlap ratio seems to be acceptable (less than value
       of "pawovlp" input parameter): execution will continue.
       But be aware that results might be approximate,
       and even inaccurate (depending on your physical system) !
 
 mkrho: echo density (plane-wave part only)
 Total charge density [el/Bohr^3]
      Maximum=    6.3467E-01  at reduced coord.    0.0889    0.5111    0.5111
      Minimum=    6.1477E-03  at reduced coord.    0.5111    0.0222    0.0222
   Integrated=    3.5790E+01
 
 ****** Psp strength Dij in Ha (atom      1) *****
   0.48205   0.07270   0.00020   0.00020   0.00020   0.00001   0.00001   0.00001   0.00000   0.00000  -0.00000   0.00000 ...
   0.07270   0.01038   0.00004   0.00004   0.00004   0.00002   0.00002   0.00002   0.00000   0.00000  -0.00000   0.00000 ...
   0.00020   0.00004  -0.15403   0.00000   0.00000  -0.00438   0.00000   0.00000   0.00004   0.00004  -0.00002  -0.00000 ...
   0.00020   0.00004   0.00000  -0.15404   0.00000   0.00000  -0.00438   0.00000  -0.00000   0.00004   0.00004   0.00004 ...
   0.00020   0.00004   0.00000   0.00000  -0.15403   0.00000   0.00000  -0.00438   0.00004  -0.00000  -0.00002   0.00004 ...
   0.00001   0.00002  -0.00438   0.00000   0.00000  -1.13047   0.00000   0.00000   0.00003   0.00003  -0.00001  -0.00000 ...
   0.00001   0.00002   0.00000  -0.00438   0.00000   0.00000  -1.13047   0.00000  -0.00000   0.00003   0.00003   0.00003 ...
   0.00001   0.00002   0.00000   0.00000  -0.00438   0.00000   0.00000  -1.13047   0.00003  -0.00000  -0.00001   0.00003 ...
   0.00000   0.00000   0.00004  -0.00000   0.00004   0.00003  -0.00000   0.00003  -0.02906   0.00000  -0.00000   0.00000 ...
   0.00000   0.00000   0.00004   0.00004  -0.00000   0.00003   0.00003  -0.00000   0.00000  -0.02906   0.00000   0.00000 ...
  -0.00000  -0.00000  -0.00002   0.00004  -0.00002  -0.00001   0.00003  -0.00001  -0.00000   0.00000  -0.02906   0.00000 ...
   0.00000   0.00000  -0.00000   0.00004   0.00004  -0.00000   0.00003   0.00003   0.00000   0.00000   0.00000  -0.02906 ...
   ...  only 12  components have been written...
 
 
 ==> Calculation of the frozen part of the second order derivatives, this can take some time...
 
 
 All ddk perturbations are available.
 The frozen part of Born effective charges and/or piezoelectric tensor will be computed
 
-open ddk wf file :BTO_phononso_DS3_1WF16
-open ddk wf file :BTO_phononso_DS3_1WF17
-open ddk wf file :BTO_phononso_DS3_1WF18
Abort(13) on node 30 (rank 30 in comm 0): application called MPI_Abort(MPI_COMM_WORLD, 13) - process 30
